   60
Geometry Step: 873
    C      0.00133960      8.51068489      0.00000000      4.23870207
    C      1.21862759      8.40938500     -0.00000000      3.94283703
    C      2.59293950      8.29759294     -0.00000000      4.00277556
    C      3.82452508      8.20004158     -0.00000001      4.00047725
    C      5.18764976      8.09753508     -0.00000001      3.99955653
    C      6.42521487      8.00890040     -0.00000000      4.00170586
    C      7.78485696      7.91965619      0.00000000      3.99960710
    C      9.02559971      7.84445478      0.00000001      4.00151840
    C     10.38428028      7.77261578      0.00000001      3.99983873
    C     11.62707075      7.71515401      0.00000001      4.00119785
    C     12.98574639      7.66470091      0.00000000      4.00008326
    C     14.22987857      7.62869500     -0.00000001      4.00088769
    C     15.58879240      7.60273066     -0.00000001      4.00033589
    C     16.83360758      7.59062322     -0.00000000      4.00060149
    C     18.19263587      7.59074447      0.00000000      4.00060178
    C     19.43744706      7.60314043      0.00000001      4.00033543
    C     20.79635604      7.62922141      0.00000001      4.00088774
    C     22.04048731      7.66522258     -0.00000000      4.00008327
    C     23.39916570      7.71554204     -0.00000001      4.00119744
    C     24.64196881      7.77272553     -0.00000001      3.99983911
    C     26.00066070      7.84437297     -0.00000001      4.00151828
    C     27.24141512      7.91939851     -0.00000000      3.99960736
    C     28.60106217      8.00860206      0.00000000      4.00170585
    C     29.83862633      8.09725242      0.00000001      3.99955642
    C     31.20174887      8.19979940      0.00000001      4.00047748
    C     32.43333142      8.29739040      0.00000000      4.00277524
    C     33.80763452      8.40926342      0.00000000      3.94283694
    C     35.02491838      8.51061420     -0.00000000      4.23870224
    C      0.00131641      0.08942337     -0.00000002      4.23870257
    C      1.21859434      0.19081308     -0.00000003      3.94283668
    C      2.59289440      0.30266123     -0.00000003      4.00277540
    C      3.82448147      0.40017009     -0.00000001      4.00047720
    C      5.18760712      0.50260946      0.00000000      3.99955650
    C      6.42517867      0.59112815      0.00000002      4.00170575
    C      7.78482852      0.68021848      0.00000002      3.99960734
    C      9.02558481      0.75517061      0.00000002      4.00151815
    C     10.38427609      0.82675126      0.00000001      3.99983904
    C     11.62707773      0.88392824     -0.00000000      4.00119751
    C     12.98575696      0.93414886     -0.00000001      4.00008332
    C     14.22989094      0.97000816     -0.00000002      4.00088769
    C     15.58880046      0.99590123     -0.00000001      4.00033559
    C     16.83361151      1.00810000     -0.00000000      4.00060154
    C     18.19263507      1.00806908      0.00000000      4.00060169
    C     19.43744567      0.99580517      0.00000002      4.00033556
    C     20.79635430      0.96987848      0.00000002      4.00088767
    C     22.04048775      0.93401385      0.00000001      4.00008330
    C     23.39916818      0.88381686      0.00000000      4.00119763
    C     24.64197237      0.82669454     -0.00000001      3.99983895
    C     26.00066695      0.75517025     -0.00000002      4.00151835
    C     27.24142756      0.68028173     -0.00000002      3.99960726
    C     28.60107990      0.59123656     -0.00000002      4.00170577
    C     29.83865353      0.50275095     -0.00000000      3.99955642
    C     31.20177877      0.40031542      0.00000001      4.00047712
    C     32.43336365      0.30278974      0.00000003      4.00277537
    C     33.80766084      0.19090292      0.00000003      3.94283667
    C     35.02493410      0.08946825      0.00000002      4.23870240
    H     -1.06290763      8.60000000      0.00000000      0.80987534
    H     36.08915626      8.60000000     -0.00000000      0.80987537
    H     36.08915626      0.00000000     -0.00000000      0.80987581
    H     -1.06290763      0.00000000      0.00000000      0.80987577
