 1200
Geometry Step: 2983
    H     -0.32945776      5.40525267      7.83501606      0.89792053
    H      0.64440315      3.88611690      7.41816248      0.89775455
    C      0.63702676      4.93155801      7.70615997      4.33239662
    H      0.72187785      8.98070559      4.31008642      0.89765484
    H      1.65095744      6.16512019      3.46798838      0.93447072
    H      1.81332069      6.17074102      6.44549648      0.92407617
    H     -0.36117948      7.53293831      3.90821703      0.89779889
    H      1.80482740      6.60154193      5.15188562      0.92445210
    H      1.77976900      6.66456742      8.12065380      0.93455152
    C      0.63702676      7.94631233      3.99594541      4.33313463
    C      1.77083381      7.06415725      4.09207076      4.02676292
    C      1.81154600      5.74275846      7.51974505      4.02686707
    H      3.19958566      4.48476857      8.60574500      0.93271583
    H      3.24819785      4.26998179      6.86940925      0.94160118
    C      3.16199171      5.02974773      7.65588537      4.11380612
    H      3.33751848      8.41582810      4.70963413      0.94168287
    H      4.18783333      6.07252269      2.92882218      0.94212964
    H      4.20531464      6.69966870      6.74891611      0.94441772
    H      3.15976934      8.29141838      2.97277116      0.93263041
    H      4.16772087      5.95297714      4.67359966      0.94431560
    H      4.38085831      6.60897801      8.48664516      0.94198379
    C      3.15221559      7.70274611      3.89692844      4.11380249
    C      4.27879962      6.66622474      3.84684579      4.11692542
    C      4.34843586      5.99507055      7.57809898      4.11728280
    H      5.75561863      4.46321379      8.15437075      0.94370862
    H      5.67191045      4.74161197      6.42835233      0.94549344
    C      5.67499203      5.25503688      7.39897479      4.10877901
    H      5.77247748      7.83740466      4.87098985      0.94525520
    H      6.71808957      5.80488258      2.77763124      0.94416291
    H      6.83205863      6.96263241      6.74017149      0.94258673
    H      5.74042398      8.08966928      3.13891052      0.94361710
    H      6.73782434      5.53205652      4.50737150      0.94262622
    H      6.92145650      6.66466776      8.46395881      0.94414652
    C      5.66350134      7.31426489      3.91177259      4.10891218
    C      6.81220314      6.31649041      3.74368995      4.11161200
    C      6.90292457      6.16305035      7.48820673      4.11149518
    H      8.24077432      4.55719982      8.01936097      0.94527774
    H      8.17474538      4.88667683      6.30221308      0.94447810
    C      8.19730801      5.37299951      7.28620420      4.11034537
    H      8.26719017      7.49930790      4.81099121      0.94440183
    H      9.27866366      5.55588112      2.66447795      0.94465772
    H      9.43647902      7.03046208      6.65740359      0.94339095
    H      8.22884966      7.80635728      3.08894037      0.94521440
    H      9.32220232      5.25334341      4.38942922      0.94333001
    H      9.48908701      6.71907056      8.38050278      0.94476549
    C      8.17647617      7.00359778      3.83575625      4.11038737
    C      9.36014278      6.05351343      3.63905573      4.11103183
    C      9.46266888      6.22409126      7.40143865      4.11090894
    H     10.74683873      4.57996576      7.95567477      0.94541626
    H     10.69216328      4.88796932      6.23440092      0.94382709
    C     10.72902087      5.38654519      7.21154768      4.11083732
    H     10.76652757      7.29229699      4.70813056      0.94388035
    H     11.85101907      5.36842300      2.57997221      0.94487923
    H     12.01087209      6.99871563      6.55752278      0.94379123
    H     10.72566825      7.59162516      2.98515761      0.94547828
    H     11.90297242      5.08793065      4.30839940      0.94367401
    H     12.04978467      6.71854191      8.28593570      0.94507426
    C     10.69863068      6.79007272      3.73453045      4.11090393
    C     11.91496863      5.88004741      3.54860191      4.11075749
    C     12.01627244      6.20566746      7.31636391      4.11068302
    H     13.27552439      4.55783865      7.91743480      0.94547317
    H     13.22126353      4.81358868      6.18700806      0.94373446
    C     13.26746027      5.34104669      7.14851091      4.11081125
    H     13.27595571      7.18753052      4.59648988      0.94383936
    H     14.43090821      5.24076382      2.52695996      0.94499188
    H     14.57040044      6.91332843      6.44141692      0.94366466
    H     13.24282053      7.43982082      2.86556764      0.94550525
    H     14.46696469      4.99837179      4.26119724      0.94364051
    H     14.60360670      6.69262131      8.17783229      0.94522827
    C     13.23036886      6.65815870      3.63604159      4.11091164
    C     14.47104660      5.77446130      3.48490345      4.11091890
    C     14.56568471      6.14648961      7.22674619      4.11092659
    H     15.79219761      4.48708583      7.86479363      0.94545403
    H     15.77549530      4.73104654      6.13158611      0.94371694
    C     15.80869493      5.26454308      7.09026363      4.11078391
    H     15.80008574      7.11694146      4.53048677      0.94387075
    H     17.00858768      5.19714369      2.46648367      0.94505467
    H     17.12937755      6.83659792      6.41681907      0.94381251
    H     15.76640649      7.36035090      2.79802298      0.94552191
    H     17.03142522      4.94302014      4.19930752      0.94367807
    H     17.14842073      6.58776024      8.14975150      0.94533413
    C     15.76855844      6.58237217      3.57229204      4.11088873
    C     17.02820363      5.72458089      3.42856967      4.11085329
    C     17.11351082      6.05722239      7.18963377      4.11079108
    H     18.32837527      4.38124321      7.81016996      0.94539078
    H     18.32357771      4.65243418      6.08049786      0.94373344
    C     18.35291750      5.17042102      7.04776724      4.11078608
    H     18.32238312      7.08065526      4.49995586      0.94395216
    H     19.58997708      5.21660282      2.42055324      0.94511107
    H     19.67932605      6.75133055      6.40941437      0.94381450
    H     18.30037825      7.34166572      2.76965649      0.94553129
    H     19.58706642      4.92200948      4.14719457      0.94371301
    H     19.69140073      6.47051742      8.13721638      0.94536902
    C     18.30929667      6.55583516      3.53600230      4.11078904
    C     19.58486098      5.72143853      3.39492766      4.11082992
    C     19.65967451      5.95766354      7.16745638      4.11086329
    H     20.87241191      4.26776565      7.75756686      0.94533931
    H     20.87835913      4.57894039      6.03456125      0.94375445
    C     20.90045521      5.07436206      7.01376068      4.11073965
    H     20.84477965      7.06322550      4.52382639      0.94391974
    H     22.16211219      5.28055773      2.40434708      0.94510697
    H     22.21815612      6.68637919      6.43737792      0.94385063
    H     20.83845553      7.37833093      2.80250499      0.94557533
    H     22.15132936      4.94097202      4.12240034      0.94358879
    H     22.23802762      6.33301336      8.15152556      0.94539040
    C     20.85104235      6.56890331      3.54382585      4.11080622
    C     22.14136651      5.75970345      3.39129814      4.11093081
    C     22.20477051      5.86127595      7.16116250      4.11086614
    H     23.42439348      4.14822488      7.66646277      0.94530117
    H     23.43376822      4.54863566      5.96203302      0.94360087
    C     23.45003266      4.99249885      6.96572631      4.11094034
    H     23.38239251      7.07073403      4.57541350      0.94383694
    H     24.72802788      5.43701466      2.35641534      0.94514359
    H     24.75870564      6.64202886      6.48111724      0.94396281
    H     23.35630785      7.46881264      2.87180275      0.94559880
    H     24.72424306      4.98938079      4.04988371      0.94373323
    H     24.77805285      6.19445451      8.17324455      0.94543601
    C     23.39126342      6.62474030      3.57256075      4.11089392
    C     24.69731347      5.85224484      3.37182266      4.11075159
    C     24.74956658      5.77800083      7.15820885      4.11078095
    H     25.97813610      4.04577547      7.56766728      0.94531426
    H     25.99106662      4.54506894      5.88953902      0.94354810
    C     26.00100290      4.92967313      6.91747222      4.11097014
    H     25.90094790      7.12601688      4.63224856      0.94388294
    H     27.29813880      5.61920404      2.35584838      0.94513326
    H     27.30189517      6.61108181      6.53234610      0.94394678
    H     25.88555427      7.60634745      2.94973895      0.94558362
    H     27.28961027      5.10248837      4.02940886      0.94365200
    H     27.31474133      6.07087748      8.19719635      0.94545251
    C     25.92895868      6.72985381      3.60898859      4.11087262
    C     27.25120155      5.99175128      3.38700605      4.11089801
    C     27.29442530      5.71094688      7.16055670      4.11071817
    H     28.53193093      3.96583435      7.47977259      0.94528847
    H     28.55203646      4.55928683      5.83257245      0.94358233
    C     28.55269889      4.88512870      6.88064095      4.11093466
    H     28.42242625      7.23241864      4.70973428      0.94401265
    H     29.86380963      5.85969843      2.37687239      0.94511866
    H     29.83857521      6.59950501      6.60779745      0.94400852
    H     28.40803401      7.78499251      3.04948178      0.94558410
    H     29.84819723      5.25778440      4.02160082      0.94356193
    H     29.85324858      5.95319444      8.23429801      0.94550565
    C     28.46396913      6.88163187      3.67046265      4.11070409
    C     29.80062951      6.17794569      3.42518724      4.11095005
    C     29.83845380      5.66057463      7.17661297      4.11070248
    H     31.09307806      3.91039359      7.38488166      0.94526537
    H     31.11477832      4.61325024      5.78110932      0.94353947
    C     31.10658312      4.86794983      6.84866918      4.11097603
    H     30.93750464      7.36426047      4.82443810      0.94415372
    H     32.43230952      6.16728823      2.42979261      0.94513545
    H     32.37226760      6.61079974      6.69606428      0.94397981
    H     30.92634571      8.00763335      3.19698768      0.94561300
    H     32.40266281      5.45135649      4.02791407      0.94355299
    H     32.38249329      5.86316343      8.27833871      0.94550611
    C     30.99413594      7.07250145      3.76772451      4.11059563
    C     32.34673515      6.41012857      3.49659542      4.11096593
    C     32.38063186      5.63780501      7.20422026      4.11076439
    H     33.66061448      3.89676880      7.31389380      0.94521377
    H     33.68098926      4.69707347      5.75637807      0.94362103
    C     33.66248723      4.88551087      6.83749363      4.11087484
    H     33.44819342      7.49962361      4.99867391      0.94402899
    H     34.97788624      6.54253644      2.52000629      0.94521011
    H     34.89255280      6.66064318      6.81717270      0.94401112
    H     33.42761910      8.27941670      3.43237312      0.94563546
    H     34.96567870      5.70092298      4.05603920      0.94362091
    H     34.92542856      5.79258259      8.33655815      0.94545198
    C     33.51649606      7.30080541      3.92132582      4.11068380
    C     34.88544611      6.69726025      3.60255151      4.11081876
    C     34.92276432      5.65148953      7.24817082      4.11078844
    H     36.23599718      3.93239235      7.21609901      0.94524612
    H     36.23305222      4.85304743      5.72647288      0.94361845
    C     36.21713522      4.95541562      6.81915199      4.11092805
    H     35.95983844      7.69331682      5.18779184      0.94399565
    H     37.50772152      6.96285966      2.64404643      0.94525744
    H     37.42575233      6.74336934      6.91999453      0.94385996
    H     35.92219677      8.59111262      3.68624514      0.94559822
    H     37.51178600      6.00312967      4.10904606      0.94367844
    H     37.46870277      5.77592317      8.37764482      0.94540246
    C     36.03308324      7.57986670      4.09841769      4.11074268
    C     37.41363600      7.03043739      3.73532036      4.11079367
    C     37.46746239      5.70794923      7.28228441      4.11091165
    H     38.79550456      4.00712611      7.13080985      0.94527319
    H     38.78557381      5.03037707      5.70990555      0.94371515
    C     38.76875002      5.05546593      6.80712660      4.11085800
    H     38.46665394      7.92767432      5.39271620      0.94403355
    H     40.03446992      7.38466248      2.81418026      0.94526510
    H     39.95364866      6.84533205      7.05535738      0.94384128
    H     38.42772728      8.92592831      3.95569155      0.94556687
    H     40.04315373      6.33252054      4.21366134      0.94349183
    H     40.02379453      5.75301212      8.42104762      0.94540741
    C     38.54703395      7.89008506      4.29855917      4.11059155
    C     39.93524181      7.38084922      3.90708753      4.11102683
    C     40.01306364      5.78266749      7.32402591      4.11089750
    H     41.35945499      4.11977906      7.00040873      0.94525484
    H     41.33302723      5.27850877      5.68868378      0.94355104
    C     41.31958223      5.19479043      6.78296504      4.11110147
    H     40.98267030      8.16198382      5.62519890      0.94401871
    H     42.54668505      7.87485221      3.00376006      0.94526489
    H     42.48926698      6.96435376      7.19502191      0.94383687
    H     40.91200073      9.27258404      4.27457914      0.94556604
    H     42.58221641      6.70137750      4.30284650      0.94355776
    H     42.56834364      5.75198695      8.45526586      0.94535496
    C     41.05561849      8.21521933      4.53119726      4.11065067
    C     42.45183649      7.77063527      4.09212903      4.11098365
    C     42.55763883      5.88219613      7.36565681      4.11079542
    H     43.91847354      4.26668446      6.89956011      0.94536291
    H     43.87509446      5.53069240      5.68947675      0.94372123
    C     43.86775679      5.35575262      6.77307344      4.11100581
    H     43.48417767      8.42188742      5.87207092      0.94406645
    H     45.05648541      8.38033754      3.24023206      0.94523743
    H     45.03634466      7.09241373      7.31484883      0.94360528
    H     43.39865305      9.64028600      4.61856832      0.94555129
    H     45.10342420      7.09850634      4.43224850      0.94358089
    H     45.12299436      5.78813781      8.47932171      0.94526320
    C     43.55813347      8.56742670      4.78657316      4.11058635
    C     44.96073839      8.18044063      4.31499910      4.11091022
    C     45.10609399      6.00055628      7.40272213      4.11103062
    H     46.45408091      4.42239479      6.79835444      0.94544863
    H     46.40972480      5.78102966      5.69536293      0.94398598
    C     46.41033598      5.51840834      6.76121194      4.11069850
    H     45.98229567      8.68449803      6.14798762      0.94414641
    H     47.56942537      8.92048710      3.53645319      0.94527752
    H     47.59337317      7.19469132      7.44459305      0.94339329
    H     45.88705135     10.00709498      5.00558390      0.94550701
    H     47.60724321      7.50724122      4.57006946      0.94366497
    H     47.69419684      5.78722451      8.48040155      0.94516942
    C     46.05672936      8.92527713      5.07961309      4.11056787
    C     47.46425874      8.59547810      4.57938785      4.11085610
    C     47.65997952      6.09936528      7.42883442      4.11124701
    H     48.98143766      4.58241467      6.63660625      0.94547592
    H     48.93983506      6.05446409      5.69055057      0.94408631
    C     48.95091652      5.67633449      6.72109446      4.11073855
    H     48.48008201      8.86604252      6.46377273      0.94395818
    H     50.06023093      9.43476176      3.89964715      0.94530377
    H     50.15277539      7.24838723      7.59611737      0.94348270
    H     48.37238989     10.32564715      5.50468957      0.94544341
    H     50.12260755      7.91729422      4.77131803      0.94354750
    H     50.27536014      5.71336551      8.42936275      0.94518901
    C     48.55266501      9.24532329      5.43627199      4.11085884
    C     49.96321345      8.99544373      4.90064291      4.11080077
    C     50.21692432      6.16534806      7.43098080      4.11110461
    H     51.51704872      4.76961860      6.41306609      0.94550789
    H     51.45494159      6.35370650      5.67183333      0.94417485
    C     51.49013621      5.84258443      6.64284657      4.11068505
    H     50.96039867      9.09783014      6.81204599      0.94426468
    H     52.56869005      9.88167742      4.32299454      0.94531397
    H     52.73527152      7.29787711      7.64984027      0.94291099
    H     50.86754548     10.63541565      5.98045161      0.94541039
    H     52.61216750      8.29128733      5.05305692      0.94324349
    H     52.83239751      5.68767131      8.33001194      0.94516927
    C     51.04433607      9.56401658      5.82171257      4.11048371
    C     52.45844445      9.35421201      5.27898997      4.11113935
    C     52.77384160      6.23495719      7.38054456      4.11159875
    H     54.02160207      4.91503048      6.21135792      0.94557342
    H     54.00284020      6.56771450      5.63501358      0.94474226
    C     54.03049959      5.95955446      6.54882270      4.11032164
    H     53.44662770      9.26427343      7.19574379      0.94452459
    H     55.07291226     10.29793923      4.81307188      0.94529107
    H     55.35746391      7.27894087      7.63836014      0.94218769
    H     53.36406346     10.87728762      6.52003182      0.94523230
    H     55.08735577      8.63077119      5.34611947      0.94320884
    H     55.36059040      5.62815101      8.22031940      0.94516129
    C     53.53622504      9.82596416      6.25670937      4.11039274
    C     54.94963657      9.66111478      5.69830886      4.11097873
    C     55.33406328      6.23398020      7.30549475      4.11224351
    H     56.51199786      4.89752037      6.08885534      0.94552916
    H     56.56397566      6.56507673      5.55854313      0.94565183
    C     56.57173091      5.93083298      6.45467811      4.10974047
    H     55.91966275      9.33372426      7.59825571      0.94479496
    H     57.59470482     10.57059974      5.35078677      0.94506830
    H     58.02027026      7.18316772      7.46483439      0.94105075
    H     55.89601252     11.01287907      7.10110378      0.94474334
    H     57.52519527      8.85093902      5.66674061      0.94331313
    H     57.85796324      5.58617806      8.16047128      0.94506114
    C     56.03337151      9.99097680      6.72605816      4.11030701
    C     57.43937378      9.83339904      6.14870916      4.11113017
    C     57.89352974      6.12546831      7.20528061      4.11363416
    H     58.98706521      4.56521318      6.19380851      0.94514981
    H     59.10219393      6.12630651      5.41060009      0.94604367
    C     59.09927670      5.63855344      6.39396147      4.10980693
    H     58.37288939      9.25142347      8.00805296      0.94473423
    H     60.13138519     10.52604039      5.84618659      0.94489589
    H     60.64686617      6.97093264      7.09400702      0.94044976
    H     58.49858317     10.96486090      7.66442856      0.94408746
    H     59.91520083      8.79982424      6.02471766      0.94351996
    H     60.37749118      5.59946891      8.14326336      0.94478591
    C     58.54347086      9.97288366      7.19814217      4.11041850
    C     59.92473214      9.74308015      6.58683141      4.11144843
    C     60.44137124      5.89475773      7.08852372      4.11509162
    H     61.50024100      4.07362054      6.61053718      0.94475743
    H     61.55356792      5.27167546      5.33630771      0.94549305
    C     61.60655079      5.14999455      6.42565131      4.11048558
    H     60.88326736      8.87905798      8.32190267      0.94418594
    H     62.61392534     10.38118159      6.28696501      0.94510113
    H     63.15258145      6.64656034      6.54068087      0.94227699
    H     61.06864876     10.61856702      8.20872068      0.94359133
    H     62.33766047      8.65658206      6.22851113      0.94468753
    H     62.96475904      5.72265734      8.01370811      0.94457389
    C     61.05922676      9.69798146      7.61245907      4.11104234
    C     62.40773954      9.50777476      6.91891178      4.11125359
    C     62.97420514      5.63322254      6.92012666      4.11301500
    H     64.04174265      3.75556581      7.01390211      0.94463950
    H     64.05557916      4.49436565      5.42709147      0.94505182
    C     64.13078384      4.72029439      6.49841838      4.11075382
    H     63.41483678      8.38668319      8.47579959      0.94373361
    H     65.02507795     10.01950198      6.44214758      0.94566883
    H     65.63394317      6.22845606      6.15522995      0.94401444
    H     63.68326089     10.11824278      8.56418205      0.94347262
    H     64.74914490      8.29762997      6.33962385      0.94511235
    H     65.51957095      5.71936839      7.82345407      0.94416623
    C     63.59031284      9.27987978      7.86285613      4.11119998
    C     64.87831049      9.12071360      7.05510905      4.11114302
    C     65.49884272      5.34461885      6.79205674      4.11143055
    H     66.60036534      3.55498690      7.30147808      0.94458899
    H     66.59731892      3.91745549      5.58839220      0.94481145
    C     66.67031965      4.37973886      6.58099792      4.11076915
    H     66.04595553      7.94517891      8.45608706      0.94354043
    H     67.37331059      9.67336853      6.30242054      0.94595607
    H     68.11524988      5.84962749      5.94427438      0.94456835
    H     66.29272177      9.67684239      8.60218298      0.94347044
    H     67.19768566      7.93720679      6.24503117      0.94492565
    H     68.05900952      5.62175577      7.67611855      0.94370028
    C     66.14589801      8.86983093      7.87368153      4.11102837
    C     67.34995744      8.77693011      6.93577576      4.11142864
    C     68.02503300      5.08007971      6.72213584      4.11132735
    H     69.19036960      3.41522384      7.46770158      0.94450120
    H     69.15999632      3.53082990      5.72013070      0.94471008
    C     69.22517945      4.13099940      6.63660381      4.11080819
    H     68.72943936      7.71996587      8.23713812      0.94348986
    H     69.70750223      9.41578235      5.88012394      0.94593248
    H     70.58540756      5.57950255      5.80159217      0.94455371
    H     68.89335492      9.46663824      8.29227186      0.94348218
    H     69.63204158      7.67180143      5.91909338      0.94504184
    H     70.58731723      5.53657424      7.54831132      0.94386523
    C     68.71168719      8.62334961      7.61451052      4.11096883
    C     69.80799770      8.55236748      6.55082739      4.11131907
    C     70.55253656      4.89439965      6.65885208      4.11132540
    H     71.83910865      3.39523583      7.54877158      0.94430185
    H     71.72618084      3.28499377      5.80387509      0.94458834
    C     71.79651987      3.99946696      6.63394708      4.11093104
    H     71.37177343      7.66502693      7.76814025      0.94348598
    H     71.99336412      9.16884244      5.17266081      0.94577601
    H     73.03320590      5.38673665      5.54544372      0.94450790
    H     71.45742605      9.41436111      7.66039671      0.94351996
    H     72.02780169      7.43649937      5.38930263      0.94513634
    H     73.09709727      5.59682172      7.27873720      0.94404659
    C     71.24241150      8.50924240      7.07912278      4.11117016
    C     72.21779957      8.38535341      5.90804701      4.11118993
    C     73.07454836      4.83184384      6.49183938      4.11135668
    H     74.49305626      3.56499389      7.53051485      0.94435446
    H     74.32978362      3.19291442      5.82596665      0.94450487
    C     74.37606880      4.02422145      6.54083273      4.11105539
    H     73.94276811      7.73323477      7.05360743      0.94343045
    H     74.22323019      8.88016366      4.22627630      0.94560659
    H     75.46868939      5.32393471      5.21522876      0.94380693
    H     73.92735660      9.45186219      6.70192067      0.94363223
    H     74.36335306      7.19735935      4.67207089      0.94517592
    H     75.58135039      5.77784156      6.89927532      0.94427277
    C     73.69991055      8.46731895      6.27490476      4.11127403
    C     74.55694388      8.21586304      5.03384689      4.11096785
    C     75.58502317      4.91122542      6.22547905      4.11156607
    H     77.10521897      3.85822219      7.35173090      0.94455808
    H     76.93927498      3.30369656      5.69800182      0.94459159
    C     76.94035187      4.20502463      6.32380494      4.11091767
    H     76.41029339      7.80283825      6.08531289      0.94309561
    H     76.37750300      8.51303477      3.10502098      0.94545836
    H     77.93971612      5.41891915      4.84731156      0.94234776
    H     76.28017209      9.44530467      5.48649372      0.94377522
    H     76.64627635      6.92417646      3.78112730      0.94533373
    H     78.02845089      6.06420145      6.47071539      0.94479592
    C     76.06154545      8.40043091      5.23371481      4.11196618
    C     76.81543763      7.99320506      3.96690935      4.11038521
    C     78.08477298      5.13055643      5.89566092      4.11221148
    H     79.60774195      4.16644182      7.09226810      0.94481553
    H     79.56585648      3.62521205      5.42742055      0.94472217
    C     79.47761061      4.51718322      6.06051690      4.11036080
    H     78.77272670      7.80964724      4.88547767      0.94262158
    H     78.47195557      8.15244432      1.85481481      0.94540419
    H     80.45092291      5.88492487      4.69480330      0.94205566
    H     78.49604031      9.34736215      4.09495386      0.94416131
    H     78.85711450      6.65419887      2.67164991      0.94522469
    H     80.51753192      6.38585207      6.37004473      0.94518576
    C     78.31871370      8.26880460      3.99906619      4.11264022
    C     78.99211863      7.74200620      2.73012373      4.11105465
    C     80.59510524      5.50840045      5.71506975      4.11267445
    H     82.09031098      4.39900094      6.81308940      0.94479753
    H     82.11210133      4.10378086      5.08869418      0.94493050
    C     81.99311702      4.89566741      5.83913127      4.11073029
    H     81.03696176      7.53193671      3.40565118      0.94250364
    H     80.50745515      8.35029800      0.49994117      0.94712230
    H     83.00518411      6.46719127      4.73987723      0.94360761
    H     80.63522112      9.14202396      2.84623068      0.94494107
    H     80.83978959      6.70496977      0.99667295      0.94357140
    H     83.03846812      6.67687956      6.47834666      0.94418836
    C     80.48031315      8.07676216      2.63260306      4.11019103
    C     81.04546685      7.75298587      1.24681090      4.11013987
    C     83.12132736      5.92218868      5.68595962      4.11197569
    H     84.55726664      4.59732806      6.60525072      0.94514103
    H     84.63030411      4.61957813      4.85763214      0.94574355
    C     84.50433580      5.26585995      5.73623756      4.11026162
    H     82.77666719      8.98562716      1.62240395      0.94460219
    H     83.35076941      6.02803548      1.08376997      0.94444480
    H     85.62411166      6.94715627      4.94700723      0.94172572
    H     82.80501329      8.17832752      0.07065815      0.94705015
    H     83.09280652      6.64128875      2.70358787      0.94172585
    H     85.56328483      6.89061469      6.69706330      0.94453716
    C     82.54557484      8.03427686      1.12680714      4.11032520
    C     83.43806202      6.92970130      1.70266977      4.11100858
    C     85.66669088      6.26243943      5.80314265      4.11186159
    H     87.02949294      4.83431006      6.67145414      0.94573892
    H     87.11041395      4.92133468      4.92678300      0.94492883
    C     87.01641384      5.53888492      5.82981866      4.11057007
    H     84.99386748      8.14828547      2.55665288      0.94629608
    H     85.88535174      5.55523330      1.18854736      0.94460290
    H     88.25306594      7.14964875      5.07571324      0.94273264
    H     85.15844271      7.89527404      0.83462749      0.94604121
    H     85.64012422      5.69892860      2.91724413      0.94104477
    H     88.14311557      7.09995356      6.82352461      0.94481215
    C     84.89525310      7.38754869      1.77165147      4.11007207
    C     85.90930184      6.27004907      2.02075105      4.11255378
    C     88.23216957      6.46492810      5.93289684      4.11132295
    H     89.51435445      5.00094231      6.86638312      0.94565736
    H     89.59686475      5.00464878      5.11928100      0.94407990
    C     89.53844220      5.66593170      5.99355959      4.11095227
    H     87.34748408      7.49301014      3.06082645      0.94542569
    H     88.39156486      5.15416932      1.37417101      0.94488277
    H     90.83814024      7.18513473      5.16872502      0.94367373
    H     87.51287105      7.52384676      1.32046967      0.94634041
    H     88.28467569      5.16937862      3.12324916      0.94237719