 1200
Geometry Step: 2573
    H     -0.29680376      5.47683632      7.78810954      0.89813055
    H      0.58302109      3.88030777      7.44582495      0.89765171
    C      0.63702676      4.93155801      7.70615997      4.32184335
    H      0.56631620      8.99763430      4.25196826      0.89762445
    H      1.91586296      6.33386803      3.50045584      0.93633620
    H      1.98890213      6.08689376      6.51000839      0.93032946
    H     -0.28753025      7.38486474      3.92361345      0.89815043
    H      2.01294940      6.80666662      5.17614208      0.93065169
    H      1.89057276      6.57166260      8.18191017      0.93665551
    C      0.63702676      7.94631233      3.99594541      4.32187835
    C      1.89982409      7.24760551      4.11663407      4.02853196
    C      1.88679707      5.65347265      7.57306759      4.02892277
    H      3.09845586      4.39451536      8.84207571      0.93437060
    H      3.17894387      3.97109002      7.14427578      0.94005537
    C      3.15253708      4.82285545      7.83446417      4.11282821
    H      3.19295452      8.92181141      4.58093261      0.94018296
    H      4.38948754      6.48346070      3.15526225      0.94302357
    H      4.47591583      6.10167412      6.70383603      0.94615978
    H      3.04807189      8.58430278      2.86900950      0.93420362
    H      4.54251338      6.80972106      4.86834117      0.94576760
    H      4.41927104      6.47395841      8.41357047      0.94299687
    C      3.14637161      8.10588840      3.85016494      4.11295995
    C      4.44341942      7.29711515      3.88953934      4.11563639
    C      4.43857553      5.64054261      7.69993350      4.11582602
    H      5.69085983      4.37115821      8.92495192      0.94282603
    H      5.70921790      3.95949222      7.22236953      0.94404285
    C      5.70545109      4.80760799      7.91838768      4.10995194
    H      5.73095282      8.97566110      4.33630585      0.94408184
    H      6.93271429      6.49900626      2.98525438      0.94393433
    H      6.97831226      6.08939495      6.73405380      0.94493812
    H      5.60918470      8.61084463      2.62707172      0.94269320
    H      7.04176753      6.85739413      4.69610395      0.94514677
    H      6.99433002      6.46134154      8.44554573      0.94372902
    C      5.68823541      8.14710225      3.61803886      4.10990451
    C      6.97735193      7.32622998      3.70478924      4.11092267
    C      6.98507301      5.62869175      7.73096799      4.11117007
    H      8.27909042      4.34780681      8.89797011      0.94380444
    H      8.24361686      3.95685588      7.19093700      0.94452834
    C      8.26034874      4.79672301      7.89709313      4.11076371
    H      8.27251226      9.00244576      4.14493779      0.94434885
    H      9.47620238      6.45996477      2.92411887      0.94430144
    H      9.50003349      6.08835097      6.68614998      0.94478610
    H      8.20704331      8.58361268      2.44508099      0.94381612
    H      9.54012435      6.88280494      4.62243818      0.94507875
    H      9.55588150      6.45224840      8.39887177      0.94414521
    C      8.24217615      8.15135743      3.45308359      4.11072862
    C      9.51384965      7.31371895      3.61236661      4.11071789
    C      9.53193507      5.62302648      7.68036381      4.11096848
    H     10.84434179      4.32244108      8.80361352      0.94416672
    H     10.79506978      3.97165325      7.08834942      0.94468132
    C     10.81354754      4.79490935      7.81386338      4.11075256
    H     10.84008107      8.96649074      4.04712363      0.94458569
    H     11.99157969      6.36968807      2.89160343      0.94442056
    H     12.04916056      6.10333989      6.61505626      0.94463596
    H     10.78428503      8.52725910      2.35201886      0.94417469
    H     12.08127799      6.85427599      4.57190226      0.94470607
    H     12.09555671      6.45629927      8.33048169      0.94417534
    C     10.79894022      8.10729995      3.36564110      4.11068015
    C     12.05287507      7.24765061      3.54714260      4.11094067
    C     12.07944827      5.63192244      7.60651965      4.11101767
    H     13.38989795      4.33104312      8.72895710      0.94436416
    H     13.35205626      3.98910240      7.01214067      0.94487256
    C     13.36384101      4.80897423      7.74176288      4.11081940
    H     13.41392968      8.88791020      3.90978939      0.94482592
    H     14.51217816      6.24268840      2.81312141      0.94430371
    H     14.61444510      6.11061232      6.55065085      0.94439066
    H     13.32186420      8.39797946      2.23046450      0.94438322
    H     14.63368547      6.77466742      4.47797348      0.94460678
    H     14.63665090      6.47727344      8.26417601      0.94426597
    C     13.34787542      8.00877983      3.25596579      4.11063695
    C     14.59321999      7.13808048      3.44245243      4.11101325
    C     14.63109511      5.64721212      7.54586000      4.11106725
    H     15.93469449      4.37739271      8.70953207      0.94447570
    H     15.89126414      3.97807713      7.00525149      0.94494304
    C     15.91095689      4.82189301      7.70677679      4.11072777
    H     15.95388378      8.79549566      3.71087621      0.94488162
    H     17.06433607      6.09918257      2.76206869      0.94425275
    H     17.17190929      6.07212410      6.47200295      0.94453817
    H     15.86222087      8.21104500      2.06270204      0.94456466
    H     17.17508779      6.71763536      4.39748105      0.94453410
    H     17.20665202      6.49068906      8.17305342      0.94398486
    C     15.88915372      7.88045322      3.10870556      4.11060083
    C     17.13687865      7.02647381      3.34455712      4.11089188
    C     17.18650146      5.63941510      7.48129365      4.11111101
    H     18.47302017      4.37868112      8.67401241      0.94464906
    H     18.42330229      3.94086077      6.97961341      0.94492293
    C     18.45512191      4.80045888      7.66103799      4.11070870
    H     18.48342724      8.70495328      3.53680029      0.94501565
    H     19.63200158      5.98758168      2.70022367      0.94430065
    H     19.71961655      6.03099650      6.41014098      0.94460313
    H     18.40096704      8.04249638      1.91809301      0.94448879
    H     19.71284334      6.65476204      4.31808791      0.94462518
    H     19.78972635      6.44182927      8.11219992      0.94408226
    C     18.42808255      7.76181769      2.97818412      4.11067779
    C     19.68402252      6.93251225      3.25598211      4.11090413
    C     19.74217598      5.59383170      7.41745288      4.11103687
    H     21.01677906      4.29173553      8.57878921      0.94467106
    H     20.94589782      3.88319641      6.87769643      0.94483719
    C     20.99764488      4.73049809      7.57296332      4.11068662
    H     21.00789400      8.63018349      3.42545888      0.94500731
    H     22.20205923      5.91459145      2.64733602      0.94423538
    H     22.27766956      5.95028526      6.32757677      0.94458370
    H     20.95155279      7.93267105      1.81999174      0.94458794
    H     22.24157295      6.59648370      4.26049468      0.94460342
    H     22.34796891      6.35453884      8.03105824      0.94419467
    C     20.97033499      7.67479962      2.88641310      4.11055137
    C     22.23120936      6.86461018      3.19568444      4.11097827
    C     22.29394843      5.50941310      7.33329254      4.11104947
    H     23.54353801      4.17467761      8.48482739      0.94459999
    H     23.50235288      3.80617858      6.77349010      0.94478959
    C     23.54273942      4.63686817      7.48948509      4.11068466
    H     23.53439168      8.57889387      3.37653617      0.94493938
    H     24.75794109      5.85638548      2.67332005      0.94428787
    H     24.85444677      5.86604320      6.28735598      0.94452655
    H     23.52096502      7.86407576      1.77753781      0.94446389
    H     24.77325934      6.58321804      4.26697014      0.94469095
    H     24.87221817      6.26346831      7.99355184      0.94426487
    C     23.51739287      7.61775386      2.84670645      4.11061993
    C     24.77707847      6.82160917      3.19491364      4.11101730
    C     24.84298689      5.42092829      7.29119415      4.11115845
    H     26.07212704      4.10648560      8.48542193      0.94456571
    H     26.06712460      3.71323154      6.77883391      0.94470323
    C     26.09055584      4.55394650      7.48365111      4.11070344
    H     26.06842811      8.54864385      3.33533247      0.94487894
    H     27.32158760      5.80945024      2.76084735      0.94421369
    H     27.43979044      5.74056442      6.27991497      0.94460862
    H     26.09016892      7.77217827      1.76545242      0.94447929
    H     27.29656922      6.59339151      4.32688190      0.94469978
    H     27.39063111      6.21175808      7.96623056      0.94439902
    C     26.06628875      7.56769875      2.84314248      4.11060526
    C     27.32249955      6.79291060      3.24736549      4.11096721
    C     27.39261583      5.33881753      7.30090961      4.11119735
    H     28.58387900      4.08940982      8.59812154      0.94460611
    H     28.64602681      3.61967065      6.91220260      0.94464885
    C     28.63736802      4.49144912      7.57838928      4.11060623
    H     28.59451946      8.53528218      3.35398159      0.94488206
    H     29.90040905      5.79973495      2.88908211      0.94425484
    H     30.01451079      5.64361990      6.37469789      0.94472915
    H     28.66070494      7.70283834      1.81453533      0.94450874
    H     29.80611321      6.60722491      4.44050859      0.94489606
    H     29.90618501      6.17781246      8.03912345      0.94441453
    C     28.61298614      7.53713630      2.89815108      4.11054834
    C     29.86692141      6.79065357      3.35925228      4.11087057
    C     29.93814942      5.28053309      7.40827221      4.11106444
    H     31.10223459      4.09670600      8.78979041      0.94457975
    H     31.22138456      3.56233410      7.12633973      0.94462257
    C     31.18204656      4.45929115      7.75713310      4.11061314
    H     31.10981269      8.55052956      3.49953652      0.94491972
    H     32.47941659      5.84248919      3.05781074      0.94414680
    H     32.57215030      5.59968746      6.55649001      0.94478288
    H     31.23121581      7.71935726      1.96289494      0.94454827
    H     32.31485800      6.62606502      4.61593495      0.94490508
    H     32.42435130      6.16873877      8.20634120      0.94445608
    C     31.15610961      7.55267015      3.04488659      4.11062417
    C     32.40882706      6.82551236      3.53995461      4.11085583
    C     32.47818019      5.25820792      7.59588938      4.11093606
    H     33.61663672      4.09659257      9.01782297      0.94464276
    H     33.79087311      3.55685044      7.36098882      0.94469055
    C     33.72174471      4.45592211      7.98619188      4.11060369
    H     33.60538171      8.60918932      3.75083793      0.94491834
    H     35.07194748      5.95864382      3.27795899      0.94416159
    H     35.11555316      5.64069509      6.83211184      0.94478394
    H     33.79375359      7.81004884      2.20424306      0.94460007
    H     34.81397464      6.66458288      4.86016415      0.94481991
    H     34.94710974      6.16056919      8.49626594      0.94435461
    C     33.68959075      7.62139173      3.28019173      4.11055307
    C     34.94451618      6.91574319      3.79912262      4.11081916
    C     35.01304618      5.26873253      7.86020517      4.11086454
    H     36.13892806      4.06033790      9.25356726      0.94465999
    H     36.33752163      3.58549075      7.57985109      0.94480784
    C     36.25597028      4.45969777      8.23816806      4.11056838
    H     36.06772844      8.72533971      4.14833201      0.94491979
    H     37.62787853      6.14257466      3.60539180      0.94419647
    H     37.64383110      5.71815214      7.15797720      0.94488309
    H     36.33916599      8.01809271      2.56948100      0.94461057
    H     37.31401466      6.78684334      5.20404968      0.94486903
    H     37.48190645      6.12949582      8.85309613      0.94422740
    C     36.20403642      7.76803363      3.62935584      4.11055840
    C     37.46396702      7.07753175      4.15556137      4.11079478
    C     37.54543926      5.28082241      8.16076031      4.11095347
    H     38.68209721      3.98998678      9.47025148      0.94465268
    H     38.86591455      3.61705088      7.76901486      0.94469977
    C     38.79098848      4.44969995      8.47953054      4.11063761
    H     38.54934012      8.88845013      4.61307948      0.94481882
    H     40.14355687      6.35275864      3.95780509      0.94432571
    H     40.16294196      5.77527256      7.46399074      0.94489862
    H     38.84607477      8.27240867      3.00106561      0.94463570
    H     39.83317514      6.93605567      5.57991190      0.94474916
    H     40.02154159      6.07969288      9.18337302      0.94428429
    C     38.70715828      7.96311385      4.04476970      4.11062545
    C     39.97536184      7.26603526      4.54232108      4.11081161
    C     40.07838945      5.27606556      8.43868543      4.11089367
    H     41.23816798      3.90848745      9.64807060      0.94456530
    H     41.40287305      3.64897568      7.92360742      0.94469405
    C     41.33136821      4.43271510      8.68830073      4.11059830
    H     41.06079389      9.05651554      5.07630745      0.94484672
    H     42.64604168      6.56298606      4.25729361      0.94422870
    H     42.67405809      5.83880723      7.74665964      0.94500167
    H     41.32612363      8.53007469      3.42744678      0.94473684
    H     42.38218924      7.07388341      5.91197595      0.94473110
    H     42.55926793      6.02107622      9.48485978      0.94442865
    C     41.21102556      8.16404440      4.45562952      4.11058957
    C     42.49378347      7.44916083      4.88599089      4.11085608
    C     42.61126235      5.27163484      8.68509317      4.11075329
    H     43.81653153      3.84987821      9.78343773      0.94447031
    H     43.93583697      3.69088046      8.04356135      0.94474895
    C     43.87759524      4.42899926      8.85342577      4.11065222
    H     43.59511276      9.21221365      5.47416330      0.94474564
    H     45.15512684      6.77486182      4.46082233      0.94422202
    H     45.18475105      5.89280775      7.95072376      0.94499700
    H     43.79818283      8.77636986      3.79059019      0.94477832
    H     44.95368460      7.19377655      6.14987892      0.94471568
    H     45.11150080      5.98948244      9.69819270      0.94434165
    C     43.72375157      8.35533822      4.80133024      4.11060234
    C     45.02382266      7.62460248      5.14231690      4.11080573
    C     45.14978785      5.28040773      8.86178686      4.11087706
    H     46.39875529      3.83121705      9.86990465      0.94442382
    H     46.45754313      3.72970470      8.12248478      0.94485416
    C     46.42551272      4.44066460      8.95802664      4.11063451
    H     46.13533429      9.36854319      5.76991133      0.94479167
    H     47.67188327      6.98129271      4.61118536      0.94433188
    H     47.68658225      5.95310072      8.06824440      0.94507767
    H     46.29040384      9.00217012      4.06441044      0.94479625
    H     47.51674677      7.32578084      6.32177115      0.94482085
    H     47.69560354      5.96305073      9.81998372      0.94416237
    C     46.24730033      8.54008658      5.05913885      4.11060499
    C     47.55833363      7.80052259      5.33235709      4.11066302
    C     47.69463662      5.29634621      8.94895167      4.11074422
    H     48.99370889      3.80701374      9.82699218      0.94458529
    H     48.95762190      3.77965900      8.07625833      0.94480278
    C     48.97221372      4.45455619      8.94117821      4.11058950
    H     48.69013801      9.51300440      6.00973603      0.94476917
    H     50.18301103      7.18036067      4.69359880      0.94427621
    H     50.18916675      6.00291311      8.05125324      0.94489237
    H     48.79312471      9.22975349      4.28469944      0.94467967
    H     50.08378011      7.44849486      6.42143559      0.94479802
    H     50.29639317      5.93372943      9.79827870      0.94412038
    C     48.77878307      8.72012767      5.25634471      4.11061185
    C     50.09570411      7.96696599      5.45344809      4.11086917
    C     50.24276123      5.30711116      8.89947159      4.11108204
    H     51.56235083      3.75505614      9.62224869      0.94466318
    H     51.45454993      3.84333317      7.87666086      0.94479451
    C     51.51180946      4.45967388      8.78240861      4.11053228
    H     51.26260638      9.63228173      6.18355572      0.94471158
    H     52.69038822      7.38422550      4.66482771      0.94435080
    H     52.72008748      6.03750484      7.93280913      0.94480422
    H     51.29167992      9.45418299      4.44141631      0.94465760
    H     52.65962188      7.54068636      6.40879314      0.94470232
    H     52.87030410      5.88569299      9.67147303      0.94422840
    C     51.31612443      8.88689235      5.38043328      4.11069572
    C     52.63670569      8.12064277      5.47652347      4.11094121
    C     52.78844421      5.30226574      8.74604522      4.11103887
    H     54.10222736      3.69895781      9.35666841      0.94468062
    H     53.97607586      3.89147869      7.62084003      0.94471920
    C     54.04788048      4.45277121      8.56085346      4.11048064
    H     53.82708977      9.75085373      6.24927933      0.94468233
    H     55.20469667      7.55927281      4.60598493      0.94445963
    H     55.26816295      6.05577382      7.77772665      0.94476777
    H     53.81409668      9.64656515      4.50092208      0.94460753
    H     55.21772803      7.64792613      6.35485217      0.94478326
    H     55.40563077      5.83788838      9.51007847      0.94434307
    C     53.85823628      9.03992611      5.41421011      4.11054588
    C     55.17585325      8.26396261      5.44672718      4.11088626
    C     55.32880209      5.28998750      8.56271807      4.11112330
    H     56.63225320      3.65774012      9.11756299      0.94458051
    H     56.53098826      3.92945530      7.39015190      0.94466597
    C     56.58938605      4.44685336      8.35608917      4.11057234
    H     56.40185642      9.85123987      6.25348930      0.94465864
    H     57.70979713      7.70709673      4.49474015      0.94449770
    H     57.82565676      6.07598049      7.65607780      0.94486763
    H     56.34563553      9.81686926      4.50294675      0.94450653
    H     57.76458781      7.72909935      6.24460212      0.94497099
    H     57.92384744      5.79874589      9.38268869      0.94439460
    C     56.40445115      9.17396834      5.39026355      4.11062662
    C     57.71157579      8.37983461      5.36155468      4.11072599
    C     57.86964627      5.28365889      8.41544674      4.11096339
    H     59.17056151      3.64394770      8.95425509      0.94461773
    H     59.09368009      3.95285117      7.23165753      0.94467873
    C     59.13617637      4.44933459      8.20927148      4.11057049
    H     58.97058183      9.93307437      6.18473191      0.94460956
    H     60.21567627      7.77806541      4.39415803      0.94446106
    H     60.36898169      6.10528973      7.57049186      0.94495452
    H     58.89937329      9.92935363      4.43435268      0.94451105
    H     60.30540019      7.80551761      6.14277609      0.94511153
    H     60.46114729      5.77134231      9.28745247      0.94438913
    C     58.95398191      9.27064105      5.31033491      4.11064825
    C     60.24634586      8.45379130      5.25804224      4.11065902
    C     60.41297229      5.28839999      8.30339773      4.11081140
    H     61.73250163      3.65330482      8.81098548      0.94444072
    H     61.63234335      3.97766025      7.09302107      0.94468452
    C     61.68326007      4.46520329      8.07468348      4.11072834
    H     61.54261700      9.99733639      6.04213429      0.94448534
    H     62.72348244      7.79768299      4.26237759      0.94454004
    H     62.89841108      6.13248279      7.43191057      0.94488240
    H     61.44565877      9.97000196      4.29282401      0.94455489
    H     62.83795560      7.84313780      6.00909236      0.94520706
    H     63.01048489      5.79112097      9.14614770      0.94437575
    C     61.50259471      9.32317458      5.17770666      4.11066429
    C     62.77913242      8.48260679      5.11784940      4.11052805
    C     62.95548494      5.31269081      8.16027101      4.11092582
    H     64.28749875      3.67890322      8.63991425      0.94446778
    H     64.17895159      4.02647282      6.92647962      0.94465037
    C     64.23003970      4.50056568      7.91484439      4.11070190
    H     64.12683012      9.99577380      5.87507818      0.94445277
    H     65.21953183      7.77913102      4.06011356      0.94456685
    H     65.43060217      6.18721725      7.29387834      0.94488603
    H     63.99069329      9.97427620      4.12842244      0.94451679
    H     65.36708331      7.80583902      5.80443623      0.94503460
    H     65.55167829      5.81877969      9.00222846      0.94436462
    C     64.05190354      9.32453693      5.01074831      4.11073207
    C     65.30707430      8.45465891      4.92035657      4.11068550
    C     65.49654897      5.35605016      8.00881048      4.11098111
    H     66.83876879      3.71949339      8.44959276      0.94448425
    H     66.73007414      4.10893990      6.74517290      0.94466105
    C     66.77682057      4.55861488      7.74509464      4.11068128
    H     66.70408344      9.92758054      5.66654706      0.94471137
    H     67.70370519      7.69477195      3.81845434      0.94457075
    H     67.97281985      6.26147380      7.16034146      0.94473017
    H     66.53297649      9.92870050      3.92282997      0.94444966
    H     67.90179247      7.72464926      5.55818471      0.94474513
    H     68.08045366      5.86771142      8.86387972      0.94439723
    C     66.59662526      9.26772335      4.79634952      4.11064612
    C     67.82969867      8.37100936      4.67349316      4.11078643
    C     68.03724289      5.41990009      7.86300831      4.11102493
    H     69.38154479      3.78375229      8.29361583      0.94460811
    H     69.29233114      4.19871827      6.59424560      0.94466648
    C     69.32460539      4.63354190      7.60118883      4.11069139
    H     69.26362577      9.83723110      5.36034581      0.94474715
    H     70.18834117      7.53225246      3.56273122      0.94465760
    H     70.53429216      6.33708334      7.04293520      0.94459518
    H     69.06080796      9.79949678      3.62068017      0.94452190
    H     70.44250146      7.63118051      5.29276447      0.94456623
    H     70.59739183      5.94657797      8.74966951      0.94432947
    C     69.13012322      9.15859974      4.50854515      4.11064097
    C     70.34815517      8.24160220      4.38492989      4.11080146
    C     70.58056872      5.49707553      7.74888429      4.11104633
    H     71.89210806      3.84043620      8.19479961      0.94466577
    H     71.88382678      4.30029910      6.50517485      0.94458140
    C     71.87319880      4.70835704      7.52340246      4.11081302
    H     71.81980158      9.71668910      4.96559114      0.94487162
    H     72.64893466      7.32992150      3.22945002      0.94461318
    H     73.13491826      6.40427231      7.05917957      0.94458443
    H     71.54988520      9.61915154      3.23760332      0.94472203
    H     72.99882313      7.51694096      4.93565480      0.94441873
    H     73.09515438      5.98798989      8.76089443      0.94439945
    C     71.64868314      9.00905977      4.14432626      4.11063900
    C     72.85557692      8.07939037      4.00390516      4.11073431
    C     73.12914156      5.55384323      7.75362773      4.11078534
    H     74.37112084      3.84979003      8.22054968      0.94481496
    H     74.50097795      4.38491088      6.55842364      0.94469411
    C     74.42023593      4.74731005      7.59063243      4.11075976
    H     74.38124867      9.54572849      4.44906453      0.94482303
    H     75.06942083      7.16263351      2.64650571      0.94468949
    H     75.74033981      6.44084524      7.31757942      0.94430520
    H     73.97256656      9.43374531      2.74978644      0.94493973
    H     75.51982879      7.31198711      4.33254047      0.94410656
    H     75.58213844      5.92054654      8.98251367      0.94449637
    C     74.13966544      8.83150374      3.65194479      4.11051130
    C     75.32652498      7.89423179      3.42283608      4.11073403
    C     75.67280694      5.54935463      7.95392050      4.11089195
    H     76.85457436      3.79881559      8.40368258      0.94490637
    H     77.07891806      4.40629383      6.77677261      0.94487724
    C     76.95485272      4.72292777      7.82002323      4.11068089
    H     76.87924421      9.34563645      3.81137758      0.94488115
    H     77.47355893      7.01383340      1.91068556      0.94481098
    H     78.30789321      6.40678051      7.70465724      0.94425767
    H     76.38046620      9.26864576      2.13444045      0.94502023
    H     77.98786362      7.09699240      3.58315721      0.94429437
    H     78.08341089      5.78374121      9.32640326      0.94454015
    C     76.59317628      8.64788718      3.01421806      4.11051467
    C     77.76402784      7.71422999      2.70400736      4.11057592
    C     78.20475213      5.47801622      8.27951379      4.11074466
    H     79.35933805      3.69737367      8.68321501      0.94488071
    H     79.61030670      4.35852658      7.08184078      0.94488409
    C     79.47775554      4.64006674      8.13398253      4.11067323
    H     79.31944646      9.16643576      3.07595161      0.94479800
    H     79.88109629      6.84822833      1.14931508      0.94484148
    H     80.84244406      6.31722340      8.10107107      0.94435230
    H     78.78736006      9.10582817      1.40859191      0.94485100
    H     80.42749610      6.92866612      2.81130249      0.94454937
    H     80.61382809      5.61842673      9.69110025      0.94444809
    C     79.01926488      8.47661004      2.27712746      4.11046905
    C     80.18569019      7.54762161      1.93822326      4.11053176
    C     80.73232349      5.36267513      8.63077682      4.11063680
    H     81.87865573      3.55982341      8.95404795      0.94485029
    H     82.11642398      4.28124295      7.37671490      0.94487515
    C     81.99735479      4.52229866      8.44053559      4.11057478
    H     81.72459442      9.02459338      2.27330161      0.94483732
    H     82.32816842      6.67948239      0.39182938      0.94461122
    H     83.35750505      6.20229018      8.47484086      0.94456311
    H     81.19695971      8.91653025      0.60706983      0.94473766
    H     82.83621407      6.77546508      2.06562545      0.94466462
    H     83.17425952      5.40773746     10.02504508      0.94442482
    C     81.43296492      8.31169618      1.49157003      4.11053515
    C     82.61092843      7.38610994      1.18212804      4.11062227
    C     83.26330244      5.21677141      8.94840173      4.11072970
    H     84.43173547      3.40622169      9.13356635      0.94477724
    H     84.61161836      4.21741994      7.59231744      0.94493036
    C     84.52640281      4.39721142      8.67164417      4.11066477
    H     84.10712976      8.90031546      1.53123151      0.94494318
    H     84.86523955      6.53853668     -0.27053906      0.94442786
    H     85.85418079      6.09869692      8.77853900      0.94465677
    H     83.65917803      8.72560813     -0.15262000      0.94459034
    H     85.23095817      6.63048198      1.43978503      0.94479271
    H     85.76006618      5.17944186     10.26684566      0.94443257
    C     83.86427332      8.15583026      0.76217213      4.11058127
    C     85.07289986      7.24391529      0.54354336      4.11069533
    C     85.80210155      5.07672601      9.17534353      4.11066152
    H     87.02309165      3.29093937      9.16987820      0.94467620
    H     87.09377338      4.21065399      7.68173992      0.94484496
    C     87.06646069      4.31332968      8.77385542      4.11068473
    H     86.49565122      8.79360559      1.01297392      0.94494012
    H     87.49739473      6.43386011     -0.66663467      0.94429859
    H     88.34202666      6.04858996      8.94568811      0.94472445
    H     86.23052513      8.57984465     -0.70441400      0.94446831
    H     87.64536022      6.52522157      1.07610444      0.94489823
    H     88.38091123      5.00019614     10.34856435      0.94444225
    C     86.34890813      8.03064649      0.23779993      4.11067701
    C     87.59030666      7.13938413      0.16796030      4.11072403
    C     88.35096949      4.99453976      9.25181653      4.11059986
    H     89.62420364      3.26385966      9.00447151      0.94476830
    H     89.56471673      4.31370490      7.60453114      0.94490813
    C     89.60827818      4.31830983      8.70112046      4.11048148
    H     88.91385115      8.71631371      0.80855324      0.94484504
    H     90.16082159      6.35576771     -0.69673904      0.94436116
    H     90.84892585      6.07330120      8.93235591      0.94466663
    H     88.88248705      8.48716073     -0.92738212      0.94443980
    H     90.08244572      6.47434403      1.04881573      0.94485735