 1200
Geometry Step: 1863
    H     -0.33053101      5.40916842      7.81126863      0.89780417
    H      0.65007700      3.89574614      7.38475728      0.89783434
    C      0.63702676      4.93155801      7.70615997      4.33327440
    H      0.74561856      9.00039154      4.22564384      0.89737969
    H      1.61243947      6.11721839      3.56732641      0.93486801
    H      1.86341586      6.18976123      6.51062027      0.92557949
    H     -0.36843085      7.54429135      3.94850757      0.89766962
    H      1.81092726      6.65733561      5.21539492      0.92474982
    H      1.77400141      6.65046581      8.19452493      0.93513781
    C      0.63702676      7.94631233      3.99594541      4.32979552
    C      1.75867359      7.05233045      4.12993742      4.02726569
    C      1.82269315      5.74101188      7.57620542      4.02670258
    H      3.16995402      4.50170051      8.72710271      0.93286849
    H      3.25650496      4.23187337      6.99833644      0.94105757
    C      3.16197896      5.01575105      7.75948034      4.11341346
    H      3.36023108      8.41610480      4.61845779      0.94135468
    H      4.14405052      5.91878403      3.03025100      0.94171773
    H      4.29373675      6.58622890      6.78564288      0.94381953
    H      3.16473412      8.15047021      2.89825552      0.93266842
    H      4.09941893      5.92659423      4.78085045      0.94453552
    H      4.34160044      6.65091961      8.53525682      0.94230486
    C      3.14950891      7.64317146      3.86917272      4.11415048
    C      4.24418602      6.57262595      3.90511543      4.11733465
    C      4.36469925      5.95926656      7.68392967      4.11766130
    H      5.72914046      4.51351014      8.52763778      0.94335799
    H      5.73526194      4.56373990      6.77591406      0.94547226
    C      5.69173039      5.19825623      7.67118624      4.10896878
    H      5.73217907      7.82457922      4.83032751      0.94588348
    H      6.71246480      5.50738340      3.07843918      0.94374319
    H      6.87186307      6.81757173      6.85773997      0.94225044
    H      5.78528568      7.83666052      3.07840036      0.94338721
    H      6.62930913      5.46486152      4.83033102      0.94193553
    H      6.88968313      6.73231483      8.60996179      0.94404996
    C      5.64646865      7.17933451      3.94590246      4.10880513
    C      6.76759803      6.13829726      3.97433751      4.11256108
    C      6.91438277      6.11703516      7.70196701      4.11203755
    H      8.25404674      4.61475813      8.48348708      0.94480060
    H      8.24263538      4.72003257      6.73470497      0.94482770
    C      8.22318338      5.32739215      7.64945770      4.11034696
    H      8.19556206      7.40365110      4.97760489      0.94515060
    H      9.23767509      5.19748297      3.12106193      0.94465587
    H      9.44437937      6.92316699      6.85389400      0.94285688
    H      8.23933956      7.52526640      3.23008480      0.94518081
    H      9.25843178      5.14732511      4.87425178      0.94232917
    H      9.45503824      6.82538832      8.60553029      0.94459932
    C      8.14029427      6.80897560      4.05584321      4.10985984
    C      9.31279393      5.82863867      4.01536662      4.11204001
    C      9.46769487      6.21585547      7.69327745      4.11152228
    H     10.77803134      4.69268919      8.48182389      0.94525047
    H     10.75203438      4.77497499      6.73161761      0.94439205
    C     10.75674122      5.39446030      7.63834129      4.11064630
    H     10.73461531      7.18117766      4.91791264      0.94440743
    H     11.77459486      4.96030682      3.07796387      0.94498768
    H     12.01620021      6.94073376      6.80428206      0.94339492
    H     10.70683897      7.24114191      3.16653740      0.94535530
    H     11.81826616      4.91878290      4.83091764      0.94328268
    H     12.03498879      6.87758512      8.55747397      0.94486022
    C     10.66044871      6.55277811      4.02024269      4.11036333
    C     11.85266636      5.59677071      3.96827249      4.11130778
    C     12.02486204      6.24960516      7.65756762      4.11108310
    H     13.29375293      4.70084259      8.46405842      0.94533418
    H     13.26796542      4.76151673      6.71241163      0.94400868
    C     13.29109158      5.39178859      7.61143220      4.11088439
    H     13.25980288      6.97998558      4.84294176      0.94412702
    H     14.33145063      4.75575116      3.02491730      0.94494437
    H     14.57866386      6.90674483      6.76585329      0.94399993
    H     13.22215976      7.01558504      3.09070971      0.94544614
    H     14.37302995      4.72898253      4.77860189      0.94371141
    H     14.60859224      6.84460098      8.51881765      0.94509483
    C     13.18903032      6.33883135      3.95419762      4.11053044
    C     14.39610083      5.40066971      3.91036490      4.11093164
    C     14.57928725      6.21610085      7.61966111      4.11057889
    H     15.83496858      4.65057163      8.42030398      0.94522931
    H     15.79622800      4.70725896      6.66840156      0.94365489
    C     15.83232481      5.33920609      7.56580570      4.11110591
    H     15.76744947      6.82055193      4.77851956      0.94407327
    H     16.90594594      4.61872950      2.97403593      0.94494144
    H     17.12734255      6.83126031      6.69574496      0.94417514
    H     15.73102376      6.84544473      3.02618176      0.94555106
    H     16.94493096      4.60312184      4.72845554      0.94383296
    H     17.15451222      6.80130448      8.44893982      0.94524999
    C     15.71509774      6.17287528      3.89317956      4.11066178
    C     16.94845807      5.27012864      3.85617926      4.11074424
    C     17.12577671      6.15586993      7.56176823      4.11059933
    H     18.38677340      4.61564722      8.40191979      0.94513529
    H     18.34203939      4.62099979      6.64854424      0.94364788
    C     18.37944506      5.27837438      7.52728417      4.11093817
    H     18.27113008      6.73847773      4.71841445      0.94409106
    H     19.48602067      4.56919450      2.92439377      0.94495554
    H     19.65884356      6.76098955      6.61893685      0.94399120
    H     18.23838402      6.75240609      2.96615050      0.94563436
    H     19.51463602      4.55311537      4.67910709      0.94381845
    H     19.70460945      6.76062791      8.37144449      0.94534196
    C     18.24240943      6.08417158      3.83687577      4.11069667
    C     19.50371950      5.22067281      3.80727084      4.11073460
    C     19.67011134      6.09994908      7.49564473      4.11093973
    H     20.92984951      4.54567126      8.31616391      0.94501632
    H     20.91376650      4.59910369      6.56309112      0.94338225
    C     20.93117861      5.23220298      7.46017969      4.11125250
    H     20.78804605      6.71322981      4.68825149      0.94394689
    H     22.06251068      4.62001171      2.84662209      0.94500717
    H     22.18832217      6.78506030      6.64228950      0.94439007
    H     20.74663475      6.75465237      2.93686355      0.94564508
    H     22.08986443      4.55695218      4.59985014      0.94390199
    H     22.24098466      6.67327194      8.39117411      0.94539284
    C     20.77340693      6.07263635      3.79638009      4.11081954
    C     22.05944666      5.24757845      3.74678513      4.11072060
    C     22.21285683      6.06959170      7.47489821      4.11053792
    H     23.50833193      4.49428344      8.19661668      0.94495675
    H     23.47274508      4.64435355      6.44970573      0.94307860
    C     23.48811089      5.22723378      7.38023454      4.11161450
    H     23.30343261      6.74330808      4.67748112      0.94370385
    H     24.62092986      4.75374370      2.75274299      0.94507489
    H     24.73043104      6.81566645      6.60745923      0.94433066
    H     23.25043268      6.84973103      2.92874144      0.94557297
    H     24.66339377      4.63015367      4.50248817      0.94412876
    H     24.76787810      6.67014669      8.35444774      0.94528491
    C     23.30300484      6.13713749      3.76177937      4.11097910
    C     24.60981501      5.34921252      3.67430600      4.11051440
    C     24.75701577      6.08428584      7.42620639      4.11061427
    H     26.06807682      4.51891494      8.13725020      0.94506468
    H     26.03459025      4.68302564      6.39150688      0.94335910
    C     26.04292963      5.25829558      7.32679097      4.11139769
    H     25.82968037      6.84187934      4.64435943      0.94367323
    H     27.17629003      4.93719493      2.65526558      0.94500868
    H     27.26495216      6.88258217      6.59242893      0.94430396
    H     25.76879994      6.99838095      2.89962307      0.94555157
    H     27.21769477      4.75145066      4.39955910      0.94418953
    H     27.33411221      6.67171213      8.33168148      0.94513783
    C     25.83505855      6.26267707      3.71147577      4.11099890
    C     27.15447268      5.49895219      3.59762176      4.11050772
    C     27.30799857      6.12109285      7.38254785      4.11070784
    H     28.62055824      4.51568570      7.99527463      0.94514062
    H     28.57594161      4.77916327      6.26225289      0.94317391
    C     28.59276759      5.30039185      7.22859241      4.11156333
    H     28.34100928      6.97430093      4.62812845      0.94370800
    H     29.73943636      5.18980529      2.56532592      0.94500807
    H     29.82456847      6.94933607      6.56953405      0.94419144
    H     28.27545585      7.20184318      2.89157645      0.94565010
    H     29.78805199      4.93839112      4.30114484      0.94409159
    H     29.88693943      6.66191233      8.29808723      0.94515204
    C     28.36024698      6.43488801      3.67207828      4.11093480
    C     29.69999831      5.71398650      3.52863006      4.11059698
    C     29.86144312      6.15376900      7.32566829      4.11076358
    H     31.16773577      4.52043701      7.87563874      0.94508623
    H     31.13201706      4.85545313      6.15496568      0.94326106
    C     31.14505763      5.33626801      7.14204768      4.11150851
    H     30.83998504      7.18733828      4.61475771      0.94388408
    H     32.29364212      5.53434918      2.48206132      0.94510407
    H     32.37671246      7.01304534      6.56045448      0.94394508
    H     30.77078450      7.47490914      2.88735114      0.94560555
    H     32.32683366      5.18355263      4.20098207      0.94407333
    H     32.43375266      6.65017466      8.27471465      0.94517971
    C     30.87688364      6.68305264      3.64000399      4.11080300
    C     32.23360007      6.00074879      3.47343080      4.11052535
    C     32.41359413      6.18514882      7.28079534      4.11104394
    H     33.72267801      4.52893251      7.75483580      0.94505826
    H     33.69808725      4.95407880      6.05364708      0.94347966
    C     33.70166337      5.38214084      7.06496631      4.11130322
    H     33.34362287      7.42089820      4.65838923      0.94394879
    H     34.83413439      5.91959004      2.44090397      0.94507403
    H     34.92980911      7.09619301      6.59000122      0.94367420
    H     33.28444720      7.81415561      2.95161578      0.94556492
    H     34.86044398      5.46633905      4.13613024      0.94383251
    H     34.98405279      6.62946840      8.27853833      0.94513576
    C     33.39385808      6.97835921      3.65464255      4.11082281
    C     34.76069320      6.32435008      3.45817226      4.11059582
    C     34.96744145      6.22574291      7.25808037      4.11133130
    H     36.27696225      4.54618770      7.63518347      0.94506054
    H     36.25182254      5.06936736      5.96163529      0.94379178
    C     36.25693237      5.43801073      6.99612487      4.11115640
    H     35.83514910      7.68554875      4.73768478      0.94421122
    H     37.37564397      6.35826409      2.44509857      0.94501927
    H     37.50009026      7.16381258      6.60596697      0.94311920
    H     35.77587390      8.18581622      3.05946154      0.94572324
    H     37.41200987      5.81724292      4.11436373      0.94340293
    H     37.53761223      6.62396787      8.27324243      0.94506958
    C     35.90057651      7.30938410      3.70818864      4.11062210
    C     37.28534598      6.70599023      3.48193717      4.11086896
    C     37.52623380      6.26521411      7.23600409      4.11186127
    H     38.82447942      4.56637866      7.55953732      0.94511445
    H     38.80970515      5.14599768      5.90451315      0.94446999
    C     38.81300656      5.47965867      6.95097636      4.11051865
    H     38.29133973      8.05426835      4.82850515      0.94490713
    H     39.92053122      6.86124305      2.52404537      0.94496633
    H     40.05792693      7.22319578      6.64966731      0.94253332
    H     38.25054625      8.60958334      3.16759659      0.94565116
    H     39.92729726      6.24667391      4.16785620      0.94296240
    H     40.10491866      6.58812127      8.28283082      0.94504873
    C     38.38959786      7.71552527      3.78852379      4.11013434
    C     39.79464191      7.15958347      3.57234674      4.11129098
    C     40.08625891      6.28987012      7.22675415      4.11229574
    H     41.35344853      4.54153486      7.38098988      0.94497758
    H     41.39950076      5.31858751      5.80989841      0.94477728
    C     41.37167194      5.52235276      6.88887670      4.11058605
    H     40.72856765      8.47008106      5.00439195      0.94535022
    H     42.46243221      7.43569610      2.70129593      0.94498960
    H     42.65653496      7.26450820      6.83326240      0.94227555
    H     40.73325673      9.09417978      3.36696517      0.94532697
    H     42.39319477      6.68803126      4.28627517      0.94285993
    H     42.62545647      6.44933896      8.38495334      0.94505535
    C     40.86687584      8.17740350      3.95505247      4.10986626
    C     42.28473359      7.64715235      3.76309972      4.11154284
    C     42.64540441      6.27210438      7.30186445      4.11236857
    H     43.89087226      4.50403652      7.34812957      0.94484238
    H     43.98059566      5.39799981      5.84243099      0.94539922
    C     43.93063975      5.51915858      6.93304654      4.11038570
    H     43.14589304      8.83266968      5.34263965      0.94544909
    H     44.98112787      7.97915913      3.04410080      0.94516591
    H     45.26466250      7.22312442      6.98532244      0.94157893
    H     43.23668094      9.58793250      3.76301532      0.94506654
    H     44.82354753      7.08749174      4.54482701      0.94264259
    H     45.13772537      6.37151368      8.51194546      0.94487564
    C     43.33590470      8.62583291      4.28104925      4.10962533
    C     44.75523268      8.09405305      4.11162809      4.11175282
    C     45.20337877      6.22045344      7.42680981      4.11332278
    H     46.42283480      4.44264807      7.56450746      0.94485356
    H     46.53702528      5.26073599      6.01876232      0.94586527
    C     46.48101795      5.43579644      7.10130987      4.11024645
    H     45.60815008      9.05788431      5.84315294      0.94513053
    H     47.43190825      8.48522570      3.44978628      0.94509721
    H     47.87781921      7.08656861      7.02393667      0.94052755
    H     45.71363021     10.01599335      4.37771474      0.94455614
    H     47.26205628      7.41175688      4.82375623      0.94302141
    H     47.66560476      6.41277279      8.62755393      0.94465742
    C     45.80261612      8.99315804      4.76437568      4.10998268
    C     47.21404895      8.46729863      4.52498095      4.11144454
    C     47.76156347      6.14145057      7.56846268      4.11467544
    H     48.91040850      4.35501065      7.95949926      0.94480088
    H     49.09113805      4.96742875      6.32857222      0.94591944
    C     49.01637538      5.27967205      7.37832841      4.11028518
    H     48.09528971      9.20308392      6.35460666      0.94474633
    H     49.90047496      8.81410122      3.91030110      0.94488484
    H     50.49428012      6.83370770      7.10206127      0.94050645
    H     48.25150068     10.30792720      5.00081936      0.94397635
    H     49.66878090      7.59747305      5.14864142      0.94349590
    H     50.19839343      6.43365014      8.78153299      0.94456661
    C     48.29130430      9.24658218      5.27525158      4.11061704
    C     49.67710162      8.68195092      4.97644437      4.11138876
    C     50.31351957      5.99298083      7.78310436      4.11505195
    H     51.41795360      4.31740433      8.58357551      0.94474075
    H     51.54251648      4.47913095      6.84453409      0.94564563
    C     51.52804097      5.05509385      7.77880857      4.11056233
    H     50.59672685      9.12951571      6.87777501      0.94445800
    H     52.36726755      8.98197098      4.38141772      0.94488832
    H     53.03018488      6.42122571      7.04795877      0.94154971
    H     50.79315304     10.39842373      5.68176893      0.94373128
    H     52.10320296      7.63762282      5.47229565      0.94416677
    H     52.81916430      6.47788307      8.78563534      0.94436249
    C     50.78963996      9.30943025      5.81221116      4.11095198
    C     52.14998565      8.73395381      5.42837482      4.11124852
    C     52.86519981      5.79098298      7.93099014      4.11392458
    H     53.97336459      4.32980028      9.07709530      0.94462338
    H     53.99989136      4.04235679      7.34975894      0.94523575
    C     54.05296581      4.83545156      8.10653748      4.11094582
    H     53.10852002      8.92568773      7.35481354      0.94414881
    H     54.80844038      8.95703516      4.80536994      0.94519579
    H     55.50446732      5.98977898      7.00297612      0.94307792
    H     53.33902901     10.31471694      6.30637803      0.94374908
    H     54.55347787      7.54606549      5.80955202      0.94455814
    H     55.45046853      6.37774667      8.70910883      0.94420097
    C     53.29533629      9.21891676      6.31365243      4.11110158
    C     54.62608908      8.64147920      5.84069729      4.11121238
    C     55.40991480      5.54053075      8.00015993      4.11211066
    H     56.54870876      4.21207239      9.27255075      0.94451924
    H     56.52099697      3.72997407      7.58836487      0.94495048
    C     56.59819109      4.60330419      8.24858161      4.11100445
    H     55.68036388      8.67027087      7.72925829      0.94401437
    H     57.22877539      8.84295009      5.09040736      0.94556812
    H     58.00827970      5.63902190      6.98329411      0.94389557
    H     55.88835636     10.12996736      6.77505442      0.94381715
    H     57.02185451      7.38191846      6.03141580      0.94459268
    H     57.99828298      6.20333044      8.63996482      0.94392398
    C     55.82104306      9.03749380      6.70436003      4.11090004
    C     57.11138614      8.47291914      6.11721327      4.11122788
    C     57.94684934      5.29571028      8.02446326      4.11159881
    H     59.11563319      4.08084022      9.38199480      0.94439786
    H     59.10261550      3.48841386      7.73238735      0.94471179
    C     59.15556092      4.40458467      8.33426091      4.11103816
    H     58.29562291      8.39145271      7.92687667      0.94408588
    H     59.62957863      8.64639548      5.18043620      0.94554675
    H     60.52075997      5.42282237      7.00801057      0.94410156
    H     58.45350666      9.89750722      7.03812165      0.94394093
    H     59.52484508      7.17544157      6.12385119      0.94427177
    H     60.51509802      6.05607450      8.63922110      0.94398079
    C     58.36738969      8.81089279      6.91493914      4.11080528
    C     59.60744095      8.26680217      6.21030001      4.11164184
    C     60.48283160      5.12176924      8.06336080      4.11151881
    H     61.72254020      4.02080119      9.45635052      0.94431448
    H     61.68254289      3.33277789      7.84443372      0.94464885
    C     61.72357886      4.28347817      8.39107335      4.11096134
    H     60.93476651      8.20890677      7.91795276      0.94429744
    H     62.06632500      8.48157139      5.08269729      0.94536209
    H     63.01439922      5.26653691      6.96841829      0.94419765
    H     61.00014425      9.71059802      7.01133678      0.94419880
    H     62.03870250      7.00279834      6.02044659      0.94434878
    H     63.03987787      5.98848513      8.56172444      0.94405857
    C     60.92041115      8.62206832      6.90096017      4.11063286
    C     62.11388427      8.09453989      6.10900548      4.11138025
    C     63.01904555      5.02298911      8.03914487      4.11145584
    H     64.34862060      4.05928073      9.45097668      0.94433203
    H     64.25892119      3.25336830      7.89650530      0.94459253
    C     64.29594446      4.24250614      8.37046053      4.11102376
    H     63.53506417      8.05263761      7.73787201      0.94435360
    H     64.50034638      8.31871334      4.84209150      0.94523985
    H     65.48889003      5.15692731      6.82331073      0.94427924
    H     63.52981510      9.55510827      6.83074219      0.94434211
    H     64.57433801      6.86129733      5.81069254      0.94438216
    H     65.56846301      5.98821702      8.36058687      0.94410208
    C     63.46026937      8.46552031      6.72333090      4.11071142
    C     64.61918777      7.95659390      5.87154557      4.11133522
    C     65.55162648      4.98860004      7.90656125      4.11130238
    H     66.97218669      4.15318324      9.31161089      0.94437703
    H     66.84051193      3.25064130      7.81445502      0.94452168
    C     66.86576541      4.26769920      8.22565228      4.11110000
    H     66.13223546      7.99259009      7.41578811      0.94430615
    H     66.94030529      8.26865378      4.47290030      0.94522741
    H     67.96415666      5.11660498      6.57317942      0.94428201
    H     66.02632362      9.47585541      6.48371360      0.94429211
    H     67.06660865      6.79855099      5.41754896      0.94483004
    H     68.07440341      6.04896613      8.04971669      0.94410087
    C     65.98599141      8.38276240      6.40007591      4.11081385
    C     67.10842583      7.89322034      5.49049891      4.11077195
    C     68.07507812      5.02177423      7.66157613      4.11119877
    H     69.55687885      4.29299799      9.06117152      0.94453748
    H     69.42471452      3.33099707      7.60189858      0.94461393
    C     69.42256761      4.36315791      7.97439905      4.11096970
    H     68.68354376      7.93742823      6.97203628      0.94414886
    H     69.35648568      8.15481085      3.99071340      0.94517124
    H     70.44690135      5.20608755      6.27100884      0.94370944
    H     68.54605662      9.41196951      6.03050957      0.94426734
    H     69.54321986      6.71526455      4.97096535      0.94484437
    H     70.57953947      6.17031656      7.72516226      0.94433121
    C     68.49706059      8.31832599      5.95920468      4.11117365
    C     69.57845518      7.81202309      5.00942926      4.11065600
    C     70.59321330      5.13588716      7.35693553      4.11143828
    H     72.12885544      4.45883498      8.72403589      0.94457157
    H     71.98017609      3.47777875      7.27895060      0.94468996
    C     71.96446419      4.51378909      7.64048325      4.11097487
    H     71.22252971      7.90839124      6.40963238      0.94381103
    H     71.75732900      8.07229597      3.39667623      0.94508620
    H     72.92842974      5.35534827      5.90135185      0.94306321
    H     71.01982509      9.35925450      5.44347870      0.94425378
    H     71.99997831      6.65266145      4.39345579      0.94510498
    H     73.07267733      6.34354318      7.33883345      0.94461334
    C     70.98296981      8.26381915      5.39894795      4.11157052
    C     72.02608348      7.75022957      4.41094707      4.11027038
    C     73.10172439      5.30473436      6.98427068      4.11173690
    H     74.67940779      4.67421762      8.32527684      0.94466042
    H     74.52369079      3.67741932      6.89224619      0.94466625
    C     74.49237479      4.71596793      7.24475622      4.11089643
    H     73.72095928      7.90370743      5.74500306      0.94344349
    H     74.14338978      7.96014108      2.71062421      0.94514642
    H     75.39288179      5.58722239      5.48582536      0.94196264
    H     73.47834750      9.31619866      4.73197632      0.94420860
    H     74.41758513      6.57197668      3.74305801      0.94532474
    H     75.58343723      6.55548139      6.93240133      0.94494718
    C     73.44290957      8.21965235      4.73109044      4.11217496
    C     74.44867697      7.66938842      3.72410173      4.10990463
    C     75.60261486      5.52238188      6.56121595      4.11251142
    H     77.19724915      4.81580495      7.84202273      0.94478176
    H     77.03175350      3.91581327      6.34817782      0.94473580
    C     77.00035075      4.92902435      6.76824815      4.11060294
    H     76.20788358      7.83364055      4.97288811      0.94270066
    H     76.45810535      7.85496073      1.91994121      0.94509634
    H     77.88148580      5.94434316      5.07436268      0.94091620
    H     75.91432938      9.23763585      3.96282914      0.94417156
    H     76.82149061      6.48893877      2.95502821      0.94523174
    H     78.10472118      6.77807138      6.59925279      0.94500377
    C     75.87912744      8.14113570      3.97207079      4.11314419
    C     76.83163817      7.58589995      2.91631731      4.11004906
    C     78.10667421      5.78306552      6.13605534      4.11354336
    H     79.65019921      4.82615597      7.30939342      0.94492999
    H     79.54383510      4.24070804      5.66345671      0.94467836
    C     79.49755613      5.15220726      6.27240873      4.11069114
    H     78.70319658      7.69495046      3.99538523      0.94307666
    H     78.71093070      8.13008719      0.96309411      0.94524685
    H     80.47850855      6.48145806      4.86114982      0.94343571
    H     78.26818889      9.17947355      3.16997692      0.94443967
    H     79.08246574      6.59973502      1.73035821      0.94473926
    H     80.63727513      6.96845861      6.53820572      0.94442257
    C     78.26509414      8.08688547      3.06849779      4.11279129
    C     79.12951880      7.68625050      1.87532000      4.11081901
    C     80.64319326      6.09371321      5.87558498      4.11190107
    H     82.07690473      4.85380099      6.90531410      0.94504212
    H     82.06863531      4.62997049      5.17001634      0.94479514
    C     82.00733400      5.39593061      5.95327698      4.11107029
    H     81.04537482      7.55549521      2.85628287      0.94314702
    H     80.93619161      8.54336545     -0.04283084      0.94700498
    H     83.17898222      6.88259219      4.88618235      0.94344211
    H     80.62150018      9.17471428      2.33642361      0.94552722
    H     81.32840725      6.89634602      0.41394874      0.94372811
    H     83.15069922      7.10249585      6.62718063      0.94388286
    C     80.58318430      8.11984977      2.03582777      4.10937091
    C     81.39107296      7.93818487      0.75130117      4.10987676
    C     83.21125790      6.33998101      5.84041484      4.11167310
    H     84.46659083      4.85867786      6.78627955      0.94512739
    H     84.68987121      4.97424095      5.05371926      0.94543796
    C     84.53788299      5.57657611      5.95894016      4.11093512
    H     82.90026314      9.30704949      1.45171708      0.94481219
    H     83.82032415      6.42103552      1.05455415      0.94487862
    H     85.83326773      7.22262577      5.39166684      0.94179874
    H     83.31333381      8.51261928     -0.05432486      0.94697887
    H     83.14506521      6.96263188      2.57862492      0.94230739
    H     85.64270142      7.02543174      7.12477894      0.94437509
    C     82.85397270      8.34431347      0.92744288      4.10964225
    C     83.68411417      7.30711484      1.68690819      4.11082718
    C     85.76399032      6.46927493      6.18663372      4.11206249
    H     86.95875808      4.86123736      6.99386093      0.94538634
    H     87.18259524      5.12353418      5.27693063      0.94479266
    C     87.05757949      5.64719946      6.23403814      4.11092377
    H     84.91687519      8.53895865      2.95912567      0.94571732
    H     86.21943643      6.15957323      1.53690855      0.94498610
    H     88.41049688      7.27902277      5.78817400      0.94275192
    H     85.42929487      8.50812242      1.28601468      0.94587767
    H     85.72968603      6.15255208      3.22190738      0.94160601
    H     88.22605929      6.95675726      7.50335527      0.94453055
    C     85.04302088      7.87466896      2.09506250      4.11031099
    C     86.08463448      6.80514861      2.41421560      4.11209532
    C     88.31888313      6.46976136      6.52436446      4.11165246
    H     89.48010100      4.79270320      7.23338810      0.94540924
    H     89.64566966      5.10050610      5.51639037      0.94422093
    C     89.58025115      5.59724715      6.49358872      4.11105367
    H     87.33484601      7.91002688      3.78567355      0.94476675
    H     88.63653775      5.94247693      1.82954809      0.94526703
    H     90.97893392      7.18213235      6.02856633      0.94338574
    H     87.64603330      8.25310586      2.09621455      0.94609758
    H     88.41943271      5.67097529      3.54933749      0.94270177