  600
Geometry Step: 1456
    H      0.21520308      5.24755882      8.66972052      0.89958249
    H      0.21520472      4.00148889      7.30049483      0.89958251
    C      0.56953758      4.95100588      7.68799153      4.29669556
    C    250.44185318      4.95244747      7.68668542      4.11084755
    H    181.59255664      5.03024144      8.79916867      0.94471535
    H      1.83774833      5.43808690      6.05103125      0.93976260
    H    135.69278885      3.85271383      7.50421998      0.94471637
    C    254.24117033      5.53898142      7.15290745      4.29669582
    H      1.83774712      6.62649594      7.35689301      0.93976261
    H    254.59550059      6.48850171      7.54039940      0.89958291
    C    181.59245033      4.93100488      7.70619628      4.11056777
    C      1.80506121      5.54859481      7.14415348      4.05826122
    H      3.09150210      5.01006126      8.82072227      0.93943938
    H      3.09150149      3.82883858      7.52275174      0.93943957
    C      3.10117844      4.90505709      7.72980874      4.09668405
    H    250.44346696      3.87381284      7.48448855      0.94341809
    H    252.97295497      3.86349415      7.48400382      0.93976277
    H      4.36723604      5.43760309      6.06134921      0.94341788
    H    180.31726796      5.45888181      6.04252095      0.94471713
    H    251.71920108      5.47992854      6.02017455      0.93943945
    H      4.36723745      6.61617673      7.35640866      0.94341807
    H    173.94240503      3.85196681      7.50489701      0.94471591
    C    153.54272675      4.93134475      7.70588772      4.11056734
    C      4.36885090      5.53754230      7.15421119      4.11084751
    H      5.64628914      5.01067626      8.81721116      0.94360733
    H      5.64628976      3.83238975      7.52247354      0.94360723
    C      5.64563010      4.91095435      7.72444051      4.10969253
    H    250.44346554      5.05238676      8.77954750      0.94341792
    H    252.97295573      5.05190212      8.78986575      0.93976271
    H      6.91638263      5.44142226      6.05829919      0.94414921
    H    244.06487836      5.47141980      6.03110013      0.94457126
    H    180.31726680      6.63692451      7.33699569      0.94471726
    H      6.91638062      6.61957221      7.35289385      0.94414914
    H    159.91758540      5.45984535      6.04164035      0.94471527
    C    253.00564397      4.94139535      7.69674327      4.05826099
    C      6.91832890      5.54087346      7.15118049      4.11021315
    H      8.19602705      5.01475301      8.81330257      0.94433683
    H      8.19602764      3.83666708      7.51877993      0.94433677
    C      8.19494151      4.91541119      7.72038641      4.11046753
    C    249.16507399      5.57903520      7.11645574      4.10969253
    C    251.70952594      5.58493333      7.11108813      4.09668412
    H      9.46650983      5.44542667      6.05473341      0.94450807
    C    143.34272875      4.93126771      7.70595807      4.11056768
    C    161.19259345      4.93184504      7.70543122      4.11056724
    H      9.46651006      6.62350148      7.34924037      0.94450813
    H    254.59550262      5.24243382      6.17117567      0.89958285
    C    168.84246441      4.93114744      7.70606624      4.11056752
    C      9.46806274      5.54472889      7.14767341      4.11051614
    H     10.74582532      5.01857023      8.80979649      0.94457125
    H     10.74582525      3.84051786      7.51530849      0.94457140
    C     10.74467860      4.91930526      7.71684409      4.11054281
    H    133.14283564      3.85270109      7.50423052      0.94471624
    H    181.59255744      3.85219413      7.50468950      0.94471550
    H     12.01668063      5.44911237      6.05139523      0.94462934
    C    131.86781163      5.55873017      7.13493180      4.11056779
    H    177.76738862      6.63677976      7.33712790      0.94471702
    H     12.01668095      6.62717188      7.34588547      0.94462940
    H    184.14262495      3.85258963      7.50433036      0.94471566
    C    133.14282368      4.93151291      7.70573255      4.11056780
    C     12.01801414      5.54837729      7.14435384      4.11055535
    H     13.29562667      5.02207680      8.80659738      0.94465396
    H     13.29562444      3.84403086      7.51212108      0.94465406
    C     13.29452433      4.92283305      7.71363300      4.11055960
    H    246.61467664      6.65332324      7.32211635      0.94433676
    H    251.71920110      6.66115222      7.31814389      0.93943959
    H     14.56686953      5.45246343      6.04835005      0.94467468
    C    242.79269012      4.94161290      7.69654303      4.11055537
    C    184.14245823      4.93140062      7.70583629      4.11056718
    H     14.56686831      6.63051550      7.34283954      0.94467462
    H    133.14283565      5.03074659      8.79870586      0.94471645
    H    249.16441453      6.65759958      7.31842405      0.94360730
    C     14.56803569      5.55171443      7.14131572      4.11056315
    H     15.84539986      5.02523863      8.80371696      0.94468712
    H     15.84540160      3.84719515      7.50924517      0.94468697
    C     15.84439803      4.92600302      7.71074748      4.11056404
    H    194.34218392      5.03208919      8.79748195      0.94471767
    H    168.84237285      3.85233663      7.50456198      0.94471582
    H     17.11710536      5.45543037      6.04565128      0.94469337
    H    242.79402265      3.86281847      7.49501070      0.94462941
    C    245.34264157      4.94526116      7.69322325      4.11051611
    H     17.11710128      6.63348445      7.34013617      0.94469353
    C    180.31734511      5.55811235      7.13549432      4.11056742
    C    175.21747127      5.55797186      7.13562215      4.11056734
    C     17.11809923      5.55467902      7.13861912      4.11056623
    H     18.39512814      5.02797858      8.80122040      0.94470203
    H     18.39512514      3.84994122      7.50674838      0.94470216
    C     18.39427096      4.92875202      7.70824793      4.11056567
    C    136.96780327      5.55874909      7.13491651      4.11056779
    H    179.04249654      3.85197018      7.50489432      0.94471545
    H     19.66738310      5.45793799      6.04337032      0.94470220
    H    242.79402406      5.04087705      8.78950175      0.94462934
    H    245.34419471      3.86648859      7.49165618      0.94450815
    H     19.66738064      6.63599151      7.33785350      0.94470227
    C    247.89237520      4.94911646      7.68971610      4.11021311
    H    249.16441505      5.47931469      6.02368495      0.94360732
    C     19.66819263      5.55718421      7.13633985      4.11056726
    H     20.94483049      5.03023246      8.79916832      0.94470924
    H     20.94482541      3.85219468      7.50469899      0.94470944
    C     20.94414242      4.93100733      7.70619508      4.11056641
    H    246.61467723      5.47523655      6.02759450      0.94433685
    H    134.41780127      6.63757455      7.33640531      0.94471582
    H     22.21767916      5.45993482      6.04155388      0.94470655
    C    241.51617977      5.56715705      7.12726381      4.11055964
    H    245.34419357      5.04456318      8.78616327      0.94450807
    H     22.21767758      6.63798540      7.33603930      0.94470647
    H    247.89432218      3.87041767      7.48800308      0.94414914
    H    247.89432260      5.04856786      8.78259740      0.94414924
    C     22.21829923      5.55917857      7.13452415      4.11056831
    H     23.49452793      5.03196914      8.79759005      0.94471295
    H     23.49452230      3.85392767      7.50312163      0.94471267
    C     23.49401761      4.93274036      7.70461626      4.11056710
    C    149.71769547      5.55836072      7.13526773      4.11056765
    C    193.06723393      5.56010879      7.13367729      4.11056765
    H     24.76796804      5.46141229      6.04020987      0.94470933
    H    135.69279097      5.03075718      8.79869737      0.94471643
    C    244.06602573      5.57068465      7.12405254      4.11054280
    H     24.76796155      6.63946223      7.33469541      0.94470938
    H    173.94240609      5.03001337      8.79937602      0.94471584
    C    246.61576271      5.57457901      7.12051054      4.11046750
    C     24.76840617      5.56065441      7.13318075      4.11056841
    H     26.04425555      5.03320094      8.79646802      0.94471476
    H     26.04425745      3.85516407      7.50199545      0.94471484
    C     26.04390928      4.93397725      7.70349314      4.11056713
    H    207.09168403      5.02949310      8.79984790      0.94471629
    C    227.49220479      4.92832361      7.70863605      4.11056852
    H     27.31821045      5.46242444      6.03929008      0.94471114
    H    153.54280674      3.85253349      7.50438182      0.94471594
    C    134.41780588      5.55876377      7.13490138      4.11056782
    H     27.31821063      6.64047623      7.33376951      0.94471114
    H    148.44271864      5.03034345      8.79907447      0.94471548
    H    157.36752210      5.45970461      6.04176877      0.94471584
    C     27.31849971      5.56166685      7.13226106      4.11056851
    H     28.59402669      5.03400722      8.79573467      0.94471540
    H     28.59402644      3.85596888      7.50126214      0.94471552
    C     28.59381700      4.93478160      7.70276057      4.11056733
    C    205.81727002      5.55785388      7.13572932      4.11056772
    H    227.49249369      3.84951453      7.50712616      0.94471117
    H     29.86842271      5.46303936      6.03873091      0.94471226
    H    241.51507870      6.64595930      7.32877543      0.94465406
    H    162.46767280      6.63785034      7.33615758      0.94471533
    H     29.86842765      6.64108681      7.33321428      0.94471221
    C    235.14251179      4.93280567      7.70455667      4.11056727
    C    182.86727753      5.55842005      7.13521354      4.11056696
    C     29.86857966      5.56227827      7.13170267      4.11056830
    H     31.14382957      5.03444666      8.79533708      0.94471618
    H     31.14383315      3.85640288      7.50086610      0.94471595
    C     31.14373653      4.93521627      7.70236263      4.11056730
    C    195.61726138      5.56002962      7.13374957      4.11056761
    H    228.76644694      5.45678892      6.04442879      0.94471474
    H     32.41859491      5.46331673      6.03847915      0.94471329
    C    135.69279712      4.93152520      7.70572359      4.11056748
    H    244.06487951      6.64947206      7.32558819      0.94457142
    H     32.41859734      6.64136423      7.33296127      0.94471331
    H    235.14332413      3.85399830      7.50304325      0.94470226
    H    175.21749427      5.45874080      6.04264904      0.94471676
    C     32.41864288      5.56255438      7.13145164      4.11056829
    H     33.69366399      5.03457484      8.79521943      0.94471637
    H     33.69366476      3.85653366      7.50074732      0.94471635
    C     33.69366813      4.93534659      7.70224523      4.11056768
    H    152.26758074      5.45924820      6.04218588      0.94471682
    H    182.86713729      5.45919025      6.04224017      0.94471716
    H     34.96875019      5.46330629      6.03848880      0.94471375
    H    138.24274523      5.03071245      8.79873736      0.94471632
    C    128.04286490      4.93139414      7.70584236      4.11056781
    H     34.96874397      6.64135742      7.33296586      0.94471357
    H    235.14332044      5.03205217      8.79752620      0.94470221
    C    232.59240483      4.93081163      7.70637275      4.11056835
    C     34.96869840      5.56254724      7.13146045      4.11056846
    H     36.24351107      5.03443315      8.79534878      0.94471645
    H     36.24350432      3.85639445      7.50087251      0.94471637
    C     36.24360232      4.93520596      7.70237459      4.11056761
    H    205.81751869      6.63666481      7.33723505      0.94471574
    H    227.49249344      5.02756456      8.80160717      0.94471110
    H     37.51886857      5.46304556      6.03872623      0.94471430
    H    241.51507869      5.46791298      6.03429948      0.94465397
    H    176.49243769      3.85190262      7.50495527      0.94471554
    H     37.51887232      6.64109128      7.33320906      0.94471422
    C    233.86656184      5.55898270      7.13470158      4.11056646
    H    232.59302688      3.85200488      7.50485701      0.94470650
    C     37.51874048      5.56228169      7.13169909      4.11056789
    H     38.79337696      5.03406151      8.79568722      0.94471664
    H     38.79338025      3.85601754      7.50121698      0.94471642
    C     38.79354454      4.93483043      7.70271339      4.11056745
    H    198.16744094      5.46047306      6.04106777      0.94471503
    C    226.21688740      5.55520844      7.13813606      4.11056740
    H     40.06896565      5.46257483      6.03915600      0.94471474
    H    134.41779904      5.45953094      6.04192766      0.94471606
    C    212.19191810      4.92880358      7.70819869      4.11056789
    H     40.06896397      6.64062062      7.33363551      0.94471466
    H    142.06783592      6.63737855      7.33658462      0.94471612
    H    232.59302493      5.03005475      8.79934314      0.94470654
    C     40.06876976      5.56181066      7.13212845      4.11056819
    H     41.34327442      5.03350614      8.79619374      0.94471626
    H     41.34327955      3.85546500      7.50171649      0.94471623
    C     41.34349833      4.93427623      7.70322003      4.11056795
    C    218.56710215      5.55478443      7.13852246      4.11056767
    C    142.06779094      5.55856708      7.13508033      4.11056774
    H     42.61902289      5.46194866      6.03972536      0.94471532
    C    173.94244510      4.93077785      7.70640305      4.11056739
    H    212.19168211      3.84999231      7.50669544      0.94471512
    H     42.61902411      6.63999810      7.33420069      0.94471512
    H    140.79270887      3.85257519      7.50434518      0.94471626
    C    231.31668633      5.55724948      7.13628028      4.11056711
    C     42.61878632      5.56118662      7.13269820      4.11056796
    H     43.89321664      5.03282890      8.79681155      0.94471616
    H     43.89320743      3.85478326      7.50233662      0.94471591
    C     43.89346490      4.93359506      7.70383795      4.11056739
    H    205.81751301      5.45861950      6.04275591      0.94471580
    H    226.21667605      6.63402120      7.33963448      0.94471552
    H     45.16904771      5.46123605      6.04037597      0.94471579
    C    240.24266834      4.93827526      7.69958058      4.11056314
    H    212.19167922      5.02804075      8.80117161      0.94471530
    H     45.16904602      6.63927662      7.33485762      0.94471562
    H    233.86587965      6.63779535      7.33619771      0.94470943
    C    166.29248245      4.93143418      7.70580580      4.11056730
    C     45.16878479      5.56046680      7.13334970      4.11056768
    H     46.44318027      5.03209183      8.79748287      0.94471581
    H     46.44318827      3.85404771      7.50300516      0.94471565
    C     46.44344382      4.93285858      7.70450951      4.11056774
    H    218.56720071      6.63359626      7.34002335      0.94471636
    H    194.34218381      3.85404745      7.50300832      0.94471775
    H     47.71901937      5.46049652      6.04104905      0.94471629
    H    240.24383682      3.85947392      7.49805789      0.94467462
    C    210.91723968      5.55639453      7.13705822      4.11056740
    H     47.71902224      6.63854469      7.33552202      0.94471611
    C    148.44271840      4.93110862      7.70610218      4.11056792
    C    140.79274664      4.93138685      7.70584792      4.11056768
    C     47.71876382      5.55973241      7.13402219      4.11056760
    H     48.99319156      5.03137083      8.79814055      0.94471583
    H     48.99318529      3.85332491      7.50366192      0.94471572
    C     48.99343378      4.93213594      7.70516715      4.11056774
    C    147.16773871      5.55835945      7.13526984      4.11056759
    H    139.51783478      5.45944389      6.04200734      0.94471584
    H     50.26897719      5.45979692      6.04168632      0.94471627
    H    240.24383381      5.03752733      8.79254615      0.94467471
    H    144.61781482      5.45921293      6.04221744      0.94471641
    H     50.26897471      6.63783954      7.33616535      0.94471621
    H    196.89201961      3.85384818      7.50319040      0.94471742
    H    231.31618074      6.63606212      7.33777541      0.94471269
    C     50.26873471      5.55902835      7.13466015      4.11056751
    H     51.54318238      5.03068432      8.79876445      0.94471588
    H     51.54318726      3.85263911      7.50428676      0.94471571
    C     51.54341867      4.93144973      7.70579146      4.11056769
    C    204.54196933      4.93096150      7.70623638      4.11056743
    H    226.21667919      5.45598276      6.04516197      0.94471540
    H     52.81892587      5.45912758      6.04229584      0.94471667
    C    238.96630605      5.56398669      7.13014894      4.11056400
    H    129.31779931      5.45943657      6.04201516      0.94471613
    H     52.81892620      6.63717201      7.33677075      0.94471643
    H    233.86587275      5.45975754      6.04172828      0.94470926
    H    170.11763622      5.45903435      6.04238085      0.94471666
    C     52.81870066      5.55836055      7.13526935      4.11056726
    H     54.09319732      5.03004364      8.79934787      0.94471571
    H     54.09319532      3.85199763      7.50486976      0.94471545
    C     54.09340749      4.93080800      7.70637499      4.11056739
    H    204.54172903      3.85215028      7.50473157      0.94471618
    C    165.01762487      5.55882043      7.13485106      4.11056754
    H     55.36883514      5.45853277      6.04283902      0.94471724
    H    130.59286344      5.03069609      8.79875217      0.94471632
    H    210.91749595      6.63520604      7.33856090      0.94471593
    H     55.36883520      6.63657402      7.33731397      0.94471699
    C    217.29196368      4.92770850      7.70919772      4.11056797
    H    129.31779940      6.63748153      7.33649047      0.94471601
    C     55.36864823      5.55776256      7.13581290      4.11056710
    H     56.64326320      5.02951691      8.79982888      0.94471503
    H     56.64326350      3.85146978      7.50534892      0.94471480
    C     56.64341665      4.93027928      7.70685651      4.11056777
    H    204.54172758      5.03019330      8.79921012      0.94471627
    C    196.89213115      4.93266026      7.70468963      4.11056711
    H     57.91868403      5.45810054      6.04323336      0.94471752
    C    139.51779988      5.55867627      7.13498028      4.11056796
    H    210.91748827      5.45716202      6.04408452      0.94471612
    H     57.91868475      6.63614179      7.33770627      0.94471742
    H    217.29183378      3.84889900      7.50768727      0.94471424
    H    231.31617749      5.45802123      6.04330650      0.94471292
    C     57.91857265      5.55732969      7.13620705      4.11056714
    H     59.19337364      5.02919824      8.80011942      0.94471492
    H     59.19337280      3.85115044      7.50563859      0.94471489
    C     59.19344266      4.92996033      7.70714709      4.11056769
    C    203.26728576      5.55854036      7.13510527      4.11056763
    H    175.21749515      6.63678424      7.33712401      0.94471706
    H     60.46852019      5.45790078      6.04341476      0.94471766
    H    238.96530383      6.64279439      7.33165214      0.94468699
    C    144.61777336      5.55844579      7.13519113      4.11056743
    H     60.46852037      6.63594259      7.33788839      0.94471777
    H    217.29183371      5.02694412      8.80217073      0.94471431
    H    136.96781963      5.45951281      6.04194381      0.94471569
    C     60.46849197      5.55712952      7.13638893      4.11056702
    H     61.74348592      5.02911893      8.80019166      0.94471471
    H     61.74348636      3.85107106      7.50571069      0.94471484
    C     61.74347052      4.92988119      7.70721942      4.11056766
    H    144.61781535      6.63725806      7.33669443      0.94471655
    C    224.94212442      4.92771143      7.70919361      4.11056838
    H     63.01833540      5.45795113      6.04336843      0.94471777
    C    167.56760065      5.55852511      7.13511884      4.11056726
    C    176.49244044      4.93071308      7.70646240      4.11056742
    H     63.01833471      6.63599307      7.33784241      0.94471766
    C    216.01715934      5.55515908      7.13818271      4.11056749
    H    161.19258061      3.85303322      7.50393005      0.94471717
    C     63.01840204      5.55718094      7.13634233      4.11056682
    H     64.29362627      5.02931191      8.80001593      0.94471502
    H     64.29362692      3.85126416      7.50553523      0.94471474
    C     64.29350645      4.93007421      7.70704289      4.11056770
    H    157.36752061      6.63775022      7.33624712      0.94471560
    H    224.94227636      3.84890267      7.50768301      0.94471219
    H     65.56814906      5.45828682      6.04306229      0.94471745
    C    138.24276996      4.93148033      7.70576398      4.11056791
    C    209.64191967      4.92952299      7.70754675      4.11056775
    H     65.56814849      6.63632928      7.33753713      0.94471744
    H    131.86779201      6.63754108      7.33643707      0.94471592
    C    230.04229789      4.92933518      7.70771548      4.11056836
    C     65.56831179      5.55751701      7.13603618      4.11056700
    H     66.84371139      5.02976658      8.79960046      0.94471567
    H     66.84371164      3.85171973      7.50512163      0.94471585
    C     66.84352127      4.93053092      7.70662778      4.11056726
    H    203.26751708      6.63735092      7.33660978      0.94471568
    H    224.94228179      5.02695132      8.80216538      0.94471231
    H     68.11805669      5.45881872      6.04257623      0.94471644
    H    238.96530322      5.46475205      6.03717938      0.94468710
    H    209.64165663      3.85071302      7.50603950      0.94471561
    H     68.11805720      6.63686251      7.33705341      0.94471635
    H    162.46767108      5.45980326      6.04167750      0.94471537
    H    230.04274240      3.85052720      7.50620204      0.94470933
    C     68.11825718      5.55805130      7.13554980      4.11056720
    H     69.39368212      5.03032485      8.79909001      0.94471681
    H     69.39368090      3.85228077      7.50461389      0.94471671
    C     69.39349079      4.93109210      7.70611673      4.11056695
    H    148.44272031      3.85229857      7.50459667      0.94471548
    C    223.66696731      5.55477376      7.13853405      4.11056733
    H     70.66807806      5.45935388      6.04208796      0.94471549
    H    182.86713758      6.63723195      7.33671523      0.94471738
    H    209.64165791      5.02875445      8.80052042      0.94471580
    H     70.66807921      6.63740039      7.33656633      0.94471567
    H    216.01732301      6.63397164      7.33968081      0.94471646
    H    230.04273644      5.02857855      8.80068624      0.94470936
    C     70.66824577      5.55858937      7.13506041      4.11056721
    H     71.94356684      5.03079975      8.79865654      0.94471719
    H     71.94356667      3.85275796      7.50418146      0.94471739
    C     71.94342670      4.93156993      7.70568307      4.11056700
    C    154.81761000      5.55870365      7.13495736      4.11056733
    H    143.34268806      5.03050055      8.79893129      0.94471603
    H     73.21814751      5.45974856      6.04172795      0.94471535
    H    128.04289068      3.85258318      7.50433738      0.94471596
    C    208.36726034      5.55713174      7.13638745      4.11056785
    H     73.21814671      6.63779584      7.33620721      0.94471553
    C    170.11755951      5.55826687      7.13535404      4.11056741
    C    228.76679510      5.55601286      7.13740356      4.11056709
    C     73.21825411      5.55898503      7.13470034      4.11056779
    H     74.49343625      5.03110819      8.79837570      0.94471713
    H     74.49343729      3.85306547      7.50390100      0.94471726
    C     74.49335931      4.93187762      7.70540233      4.11056737
    H    203.26752166      5.45930553      6.04213239      0.94471586
    H    142.06783438      5.45933382      6.04210719      0.94471600
    H     75.76820850      5.45997374      6.04152335      0.94471547
    C    237.69260499      4.93531118      7.70227774      4.11056619
    C    130.59284432      4.93146440      7.70577876      4.11056769
    H     75.76820771      6.63801980      7.33600234      0.94471544
    C    150.99272411      4.93116458      7.70605011      4.11056800
    H    166.29237644      5.03066724      8.79877926      0.94471641
    C     75.76826101      5.55920956      7.13449584      4.11056743
    H     77.04331522      5.03125355      8.79824419      0.94471721
    H     77.04331563      3.85321031      7.50376876      0.94471702
    C     77.04329286      4.93202206      7.70527028      4.11056673
    H    145.89268838      3.85234402      7.50455455      0.94471592
    H    223.66687218      6.63358719      7.34003061      0.94471595
    H     78.31826632      5.46004088      6.04146160      0.94471548
    H    237.69360191      3.85650597      7.50076004      0.94469353
    H    208.36752343      5.45789760      6.04341419      0.94471583
    H     78.31826646      6.63808743      7.33594140      0.94471556
    H    216.01732824      5.45592968      6.04520870      0.94471661
    H    131.86779402      5.45949612      6.04195860      0.94471595
    C     78.31826359      5.55927691      7.13443426      4.11056749
    H     79.59320985      5.03124922      8.79824765      0.94471678
    H     79.59320908      3.85320571      7.50377268      0.94471706
    C     79.59323307      4.93201811      7.70527446      4.11056744
    H    177.76738903      5.45873641      6.04265254      0.94471721
    H    170.11763585      6.63707793      7.33685693      0.94471652
    H     80.86829806      5.45997666      6.04152061      0.94471583
    H    237.69359976      5.03455914      8.79524569      0.94469337
    C    156.09270685      4.93158691      7.70566651      4.11056742
    H     80.86829912      6.63802313      7.33599967      0.94471591
    H    193.06721782      6.63891899      7.33518598      0.94471485
    H    228.76644853      6.63482604      7.33890101      0.94471482
    C     80.86825945      5.55921212      7.13449355      4.11056742
    H     82.14313187      5.03113727      8.79835065      0.94471669
    H     82.14313118      3.85309390      7.50387427      0.94471677
    C     82.14318561      4.93190575      7.70537703      4.11056709
    C    201.99200402      4.93162950      7.70562740      4.11056725
    H    138.24274756      3.85266930      7.50426091      0.94471621
    H     83.41830873      5.45982748      6.04165799      0.94471583
    C    236.41643343      5.56123822      7.13264892      4.11056564
    H    128.04289241      5.03062822      8.79881601      0.94471615
    H     83.41830875      6.63787280      7.33613518      0.94471590
    H    172.66757293      6.63689611      7.33702241      0.94471677
    C    194.34221235      4.93286046      7.70450773      4.11056695
    C     83.41824641      5.55906197      7.13463045      4.11056746
    H     84.69306809      5.03095564      8.79851591      0.94471669
    H     84.69306846      3.85291213      7.50403971      0.94471652
    C     84.69314417      4.93172315      7.70554263      4.11056736
    H    201.99177822      3.85281814      7.50412578      0.94471641
    H    223.66687354      5.45554335      6.04555966      0.94471616
    H     85.96833205      5.45960825      6.04185719      0.94471603
    H    196.89202023      5.03188941      8.79766331      0.94471751
    C    213.46720577      5.55571426      7.13767718      4.11056788
    H     85.96833136      6.63765348      7.33633469      0.94471585
    H    154.81752538      6.63751567      7.33646038      0.94471639
    H    161.19258148      5.03107655      8.79840432      0.94471718
    C     85.96823942      5.55884255      7.13483041      4.11056760
    H     87.24300187      5.03069757      8.79875128      0.94471660
    H     87.24300296      3.85265366      7.50427451      0.94471648
    C     87.24310366      4.93146487      7.70577778      4.11056739
    H    201.99177794      5.03086226      8.79860094      0.94471666
    H    136.96781933      6.63756039      7.33642114      0.94471560
    H     88.51832765      5.45932279      6.04211732      0.94471641
    H    140.79270914      5.03062040      8.79882077      0.94471622
    H    149.71767716      6.63717201      7.33677051      0.94471675
    H     88.51832664      6.63736715      7.33659464      0.94471633
    H    193.06721823      5.46087105      6.04070508      0.94471471
    H    176.49243794      5.02994911      8.79943510      0.94471549
    C     88.51822230      5.55855581      7.13509079      4.11056739
    H     89.79298221      5.03040548      8.79901849      0.94471592
    H     89.79298215      3.85235878      7.50454052      0.94471572
    C     89.79307996      4.93116957      7.70604558      4.11056752
    C    200.71729710      5.55918200      7.13452164      4.11056746
    H    195.61733069      5.46079174      6.04077733      0.94471490
    H     91.06825630      5.45905184      6.04236506      0.94471719
    H    236.41557829      6.64004920      7.33414776      0.94470215
    C    179.04244315      4.93078046      7.70640083      4.11056749