  600
Geometry Step: 21470
    H     27.91208140     10.49116849     11.10693806      0.90061213
    H     28.75130472     11.90892421     11.97336062      0.89463180
    C     28.32769399     11.49151176     11.06785677      4.30164522
    C    209.84438336     -0.12415068     18.71235397      4.10716087
    H    176.48316415      8.30662133     10.00283545      0.94480821
    H     28.44783596     11.76681001      8.96137414      0.93209193
    H    133.34292542     14.74190043     12.80631563      0.94478053
    C    208.40234472     -2.62538374     19.85460580      4.30358655
    H     27.05228923     12.49635709      9.68985159      0.93148845
    H    208.76420142     -3.04885399     18.92523564      0.89487163
    C    176.36001332      9.21664884      9.40225148      4.11061391
    C     28.13603093     12.32183573      9.86622425      4.04424508
    H     28.55678525     14.26861887      9.03902136      0.94901977
    H     28.49452174     14.23369909     10.79339417      0.94315827
    C     28.84693016     13.67784426      9.91650828      4.11014650
    H    209.18183893     -0.69617423     18.05150337      0.93765131
    H    208.60391308     -0.89964560     21.08231245      0.93528731
    H     30.79450989     14.56045181     10.18540084      0.94827203
    H    175.60217142     11.22266063      9.65854177      0.94479325
    H    210.99707215     -1.82122426     19.38485693      0.94117129
    H     30.65966154     12.93066076     10.82124115      0.93807233
    H    169.72316609     11.07794283     12.92173261      0.94307824
    C    150.87990427     11.36299073     13.37317215      4.11055700
    C     30.37350291     13.56895469      9.97653937      4.10621004
    H     30.59974393     12.02038082      8.48302560      0.94194143
    H     30.69652573     13.64865777      7.84174174      0.94665327
    C     30.99627720     13.02156615      8.69117502      4.10987458
    H    209.22372107      0.66687338     19.15170530      0.94495532
    H    209.67580442     -2.20028850     21.50884824      0.92963752
    H     32.92262575     13.95704264      8.97498702      0.94529517
    H    212.81594767      2.80584529     13.63466922      0.94729267
    H    176.39506680     10.57453960     11.07980754      0.94485636
    H     32.82057264     12.32951868      9.61578529      0.94380293
    H    157.35192346     10.26307553     12.41671368      0.94456862
    C    209.23402738     -1.68539188     20.62725195      4.04613746
    C     32.52214563     12.95684301      8.76657891      4.11075266
    H     32.74833597     11.41260431      7.27385951      0.94462545
    H     32.85275618     13.04029019      6.63390445      0.94509406
    C     33.14988600     12.41208955      7.48308930      4.11060624
    C    210.97189183      0.50398051     17.89331960      4.11183568
    C    210.36479952     -1.03920249     19.82194756      4.11036002
    H     35.07713199     13.34360587      7.76996425      0.94480979
    C    140.90602754     13.11491696     12.58318812      4.11056716
    C    158.46266314     11.07873472     14.08156493      4.11055524
    H     34.97235774     11.71555465      8.40879195      0.94451026
    H    207.51542450     -3.05713583     20.30426170      0.90050726
    C    166.01286673     11.63414078     14.95412338      4.11112899
    C     34.67555319     12.34427318      7.55993622      4.11053315
    H     34.90140955     10.80139576      6.06567653      0.94468283
    H     35.00883561     12.42967447      5.42773034      0.94483203
    C     35.30405623     11.80011017      6.27654759      4.11057675
    H    130.97517046     15.74475149     12.63904702      0.94439206
    H    175.68425282      8.94719577      8.58090689      0.94463841
    H     37.23229070     12.72915141      6.56482418      0.94475328
    C    130.17580138     16.84442360     10.95730139      4.10972274
    H    174.42694700     11.22567037     12.52512713      0.94485320
    H     37.12446526     11.10191838      7.20520189      0.94463681
    H    177.70901271      8.25205717      7.17851810      0.94475514
    C    131.33702755     16.43638190     11.86802218      4.10977750
    C     36.82955630     11.73017157      6.35533599      4.11056862
    H     37.05582068     10.18502924      4.86346676      0.94469662
    H     37.16471228     11.81237451      4.22330695      0.94476979
    C     37.45884690     11.18380932      5.07326513      4.11056945
    H    212.24423967      2.61488323     16.63257153      0.94500977
    H    211.00988666     -0.46447771     20.49782712      0.94952604
    H     39.38718317     12.11212034      5.36270260      0.94473277
    C    211.69501604      4.49549173     12.90673206      4.10867508
    C    178.37531334      8.54295647      8.00027844      4.10974258
    H     39.27830843     10.48511251      6.00362056      0.94468980
    H    131.69985679     17.32358570     12.40217990      0.94721372
    H    211.63670367      1.07096408     18.55733302      0.94537904
    C     38.98424216     11.11322547      5.15328986      4.11056723
    H     39.21145092      9.56739207      3.66216034      0.94470711
    H     39.32042570     11.19451302      3.02151786      0.94474390
    C     39.61427340     10.56630547      3.87181788      4.11057492
    H    185.94698953      3.53955210      4.58111555      0.94474158
    H    166.06431277     10.69174665     15.51368482      0.94479208
    H     41.54198795     11.49477949      4.16399209      0.94472425
    H    212.55063342      4.77829809     12.28068720      0.94711404
    C    211.05646489      2.97375178     14.86511336      4.10960878
    H     41.43337378      9.86675119      4.80211650      0.94468847
    C    175.71873517     10.31038838     10.25702900      4.11052397
    C    171.78406310     11.66795170     13.17023984      4.11109425
    C     41.13963270     10.49608383      3.95265054      4.11056810
    H     41.36953927      8.95245511      2.45957886      0.94469224
    H     41.47619414     10.58054774      1.82102639      0.94473011
    C     41.77070304      9.95169476      2.67063974      4.11057445
    C    134.87867836     14.88933337     11.29321638      4.11060403
    H    173.67698915      9.65135388     10.00382155      0.94463694
    H     43.69670848     10.88272310      2.96602838      0.94473531
    H    211.02160404      3.91955415     12.26060695      0.94297560
    H    210.39340282      2.40982842     14.19703718      0.94470148
    H     43.59073541      9.25278108      3.59979980      0.94470253
    C    210.45079975      1.42189489     16.78679878      4.11036422
    H    211.59042587     -0.28787887     17.45239435      0.94467259
    C     43.29619531      9.88383658      2.75186764      4.11057625
    H     43.52999359      8.34450220      1.25484564      0.94469266
    H     43.63328812      9.97450778      0.62066017      0.94473042
    C     43.92891615      9.34404839      1.46869192      4.11057928
    H    212.19486788      1.25967117     15.52325987      0.94495142
    H    132.85150384     16.48139566     10.33034049      0.94483341
    H     45.85264724     10.27834547      1.76832635      0.94473412
    C    210.98897299      5.76583406     13.38830332      4.10866829
    H    210.43705698      3.76029565     15.31288289      0.94317919
    H     45.75025096      8.64573705      2.39578089      0.94471202
    H    209.78636130      0.85513902     16.12260602      0.94418559
    H    209.83226046      2.21348870     17.22826658      0.94478929
    C     45.45451492      9.27938035      1.55016858      4.11056458
    H     45.69327814      7.74594978      0.04790137      0.94469944
    H     45.79070876      9.37844651     -0.58074887      0.94472415
    C     46.08878167      8.74615976      0.26504927      4.11055958
    C    147.17381197     11.81229225     12.21566643      4.11059692
    C    185.05817103      5.50378532      4.70601139      4.11056094
    H     48.00910419      9.68639051      0.56749669      0.94474580
    H    133.98035757     16.35942951     12.59186963      0.94510628
    C    212.18758461      3.60389922     14.04989709      4.11016518
    H     47.91291710      8.05124213      1.18924569      0.94470127
    H    170.51186781     10.33664433     14.30024244      0.94471434
    C    211.57807200      2.05117232     15.96737132      4.11117889
    C     47.61456917      8.68670833      0.34596923      4.11055538
    H     47.85880978      7.15944274     -1.16174970      0.94470018
    H     47.94972710      8.79452703     -1.78471725      0.94472754
    C     48.25048826      8.16041784     -0.94121417      4.11056650
    H    191.45475582      6.91410584     -4.74039416      0.94510747
    C    204.34772034      8.51652354      3.71624282      4.11016851
    H     50.16721740      9.10706398     -0.63624172      0.94473823
    H    150.74703705     10.48188583     14.01336401      0.94466386
    C    132.50737722     15.79813128     11.11700230      4.10955118
    H     50.07770496      7.46944903     -0.02006025      0.94471329
    H    145.95742087     12.92554632     13.60722569      0.94484064
    H    154.78040236     10.28108059     12.18493197      0.94456440
    C     49.77655562      8.10662755     -0.86106695      4.11057519
    H     50.02741337      6.58497625     -2.37340458      0.94468905
    H     50.10979998      8.22227156     -2.99165129      0.94472436
    C     50.41426427      7.58719922     -2.15021100      4.11058914
    C    192.13246510      6.04920987     -2.88096380      4.10971065
    H    205.24418137      8.78783754      3.14450411      0.94490797
    H     52.32622299      8.54270112     -1.84361214      0.94474004
    H    210.09216502      5.49732650     13.95961261      0.94305822
    H    159.84416138     12.08801359     12.76529396      0.94473029
    H     52.24537296      6.90294374     -1.23182365      0.94471845
    C    207.62870222      7.53967213      8.18585009      4.10882311
    C    177.71423500      9.64174604      8.83320628      4.11107532
    C     51.94063071      7.54087322     -2.07098680      4.11055437
    H     52.19905527      6.02455316     -3.58743241      0.94468879
    H     52.27185306      7.66392972     -4.20140458      0.94472215
    C     52.58034020      7.02836030     -3.36182672      4.11057882
    C    187.16211777      4.89323529      3.41653269      4.11053231
    H    203.59876756     10.52143746      3.95415436      0.94736311
    H     54.48701581      7.99348985     -3.05205163      0.94474306
    C    133.67466434     15.45861508     12.04464874      4.11112398
    H    212.83671981      4.18571872     14.71642502      0.94495098
    H     54.41607692      6.35057941     -2.44764409      0.94472783
    H    208.52435497      7.83764486      7.62638632      0.94471351
    H    171.68839852     12.60188087     12.60210840      0.94491084
    C     54.10701528      6.99049394     -3.28371043      4.11057283
    H     54.37284348      5.48274128     -4.80741798      0.94472143
    H     54.43588735      7.12536036     -5.41372040      0.94473638
    C     54.74871434      6.48762027     -4.57738755      4.11055955
    H    149.64307497     10.60723240     11.77010015      0.94458221
    H    177.58713816     10.54237854      8.21935160      0.94500452
    H     56.65011498      7.46199945     -4.26450474      0.94473700
    H    136.31491668     15.47838529     12.79265977      0.94487359
    C    127.41730270     14.92816546      8.96084123      4.11113045
    H     56.58895645      5.81586090     -3.66796414      0.94482634
    H    206.99153092      6.99935818      7.47534017      0.94557525
    C    206.50803227      9.74984362      7.54397917      4.11078242
    C     56.27559847      6.45801622     -4.50070431      4.11055086
    H     56.54931999      4.95898493     -6.03158571      0.94480774
    H     56.60206197      6.60473214     -6.63039530      0.94496838
    C     56.91937958      5.96504918     -5.79716160      4.11113149
    H    192.55999931      5.14951675     -3.34121495      0.94494119
    H    204.63611315      7.66536232      4.34500625      0.94348051
    H     58.81565544      6.94949846     -5.48297417      0.94475868
    H    211.64769224      6.29714455     14.08669102      0.94719895
    H    171.68850981     10.36153957     11.45173703      0.94471895
    H     58.75997209      5.30196473     -4.88873926      0.94310770
    C    206.89464963      8.79139025      8.67399729      4.10890777
    H    206.14900898     10.68997702      7.98156391      0.94762924
    C     58.44646209      5.94394860     -5.72081905      4.10965849
    H     58.74023301      4.44311708     -7.24527458      0.94451985
    H     58.73698922      6.08916181     -7.84946776      0.94713800
    C     59.08846241      5.45948398     -7.02247378      4.10969144
    H    189.11854988      5.15292597      1.47946022      0.94215610
    C    203.23914488      8.08586876      2.75516438      4.11024171
    H     60.99766408      5.29123948     -8.00695585      0.94715970
    H    132.17173784     14.88932598     10.60291964      0.94309047
    C    195.59085945      7.96931446     -6.74759348      4.10675109
    H     60.96592077      6.48890474     -6.72676990      0.94456085
    H    139.99132403     14.13500310     10.91462256      0.94474045
    H    207.40076883     10.00838098      6.96065653      0.94481883
    C     60.61931522      5.48299933     -6.99499569      4.10964189
    H     60.87671681      4.65166680     -5.01307366      0.94308558
    H     60.87590000      3.45600869     -6.29419895      0.94476314
    C     61.23011701      4.46131953     -6.03372196      4.10967748
    C    199.72082131      7.40840775     -3.18302649      4.11053865
    C    139.72221038     13.36419304     11.64781830      4.11062159
    H     63.11728435      4.30079243     -7.07322162      0.94496109
    C    170.42124593     11.27788448     13.74364651      4.10963445
    H    194.94473267      7.62584421     -7.56524875      0.94810150
    H     63.11210496      5.49120937     -5.78775019      0.94485716
    H    138.18395561     13.02217375     13.12667211      0.94467463
    C    205.43258276      9.19405755      6.60820918      4.10884942
    C     62.75892379      4.48665173     -6.05285276      4.11113064
    H     63.00720094      3.63939534     -4.08177647      0.94483997
    H     63.02997933      2.45496979     -5.37265618      0.94470333
    C     63.37406510      3.46068797     -5.10037399      4.11055597
    H    192.80439346      6.31563934     -2.05612811      0.94334650
    H    202.34202788      7.81591401      3.32643771      0.94486134
    H     65.27017207      3.32775436     -6.12628436      0.94473141
    C    210.60082962      6.71415187     12.25066173      4.11015755
    H    195.75173452      7.09668312     -6.10383465      0.94237170
    H     65.24580612      4.50182535     -4.82605505      0.94476023
    H    205.99530733      8.49355595      9.22751780      0.94461599
    C    163.50550125     11.36034786     14.64248755      4.11055671
    C     64.90269531      3.49800064     -5.10649267      4.11055251
    H     65.14129173      2.62665930     -3.14466842      0.94474240
    H     65.18595835      1.45982620     -4.45088243      0.94471158
    C     65.51853254      2.46485684     -4.16228130      4.11057583
    H    200.06176529      6.47303482     -3.64433800      0.94475063
    H    185.19045119      4.07270090      3.09330483      0.94478197
    H     67.42466148      2.36104470     -5.17287888      0.94473423
    H    210.24903383      7.66069018     12.68007277      0.94742592
    C    194.86686776      9.06311970     -5.95918359      4.10873904
    H     67.37836059      3.51925489     -3.85912115      0.94474191
    C    145.85957337     12.04289473     12.96257768      4.11057552
    C    138.46414633     13.79677024     12.40189013      4.11057684
    C     67.04676165      2.51583184     -4.15445058      4.11057746
    H     67.27563639      1.62346560     -2.20106167      0.94473914
    H     67.34249764      0.47260518     -3.52040394      0.94472239
    C     67.66345411      1.47702941     -3.21702142      4.11056347
    C    144.67092581     12.23166931     12.01919863      4.11059544
    H    137.03261015     13.16823405     10.90966521      0.94457081
    H     69.57942262      1.40241317     -4.21152707      0.94484670
    H    211.49072115      6.96170929     11.65828218      0.94489174
    H    142.01716802     11.84572140     11.23132148      0.94456467
    H     69.51077759      2.54431099     -2.88455357      0.94473015
    H    187.30872961      3.44703382      1.81884574      0.94507781
    H    205.78952342      8.26757811      6.14365840      0.94154498
    C     69.19099748      1.54155631     -3.19474913      4.11055590
    H     69.41014378      0.62743144     -1.25028952      0.94497286
    H     69.50034837     -0.50637855     -2.58300406      0.94481418
    C     69.80892590      0.49723084     -2.26429055      4.11113563
    C    190.73861459      5.73214402     -2.33529041      4.11024862
    H    202.95229785      8.93747050      2.12635805      0.94333192
    H     71.73024298      0.45593302     -3.24385681      0.94313779
    C    209.51661998      6.15261322     11.32852005      4.11012375
    H    128.63107255     16.68704189      8.64389095      0.94486323
    H     71.64312297      1.57712109     -1.90002645      0.94471922
    H    207.52901995      9.32803988      9.38970051      0.94545341
    H    167.56506968     11.11802813     13.54514748      0.94312959
    C     71.33555684      0.57611623     -2.22771274      4.10965292
    H     71.50953128     -0.37532511     -0.30346251      0.94716069
    H     71.67712023     -1.47781346     -1.65661513      0.94457695
    C     71.95121403     -0.47597231     -1.30288735      4.10963252
    H    190.33139872      6.62138717     -1.83780219      0.94492376
    C    162.33932695     11.33005498     13.65377122      4.11061316
    H     73.74848293      0.63974524     -0.86067795      0.94466461
    H    129.02452173     15.03342384     11.19504984      0.94485700
    H    195.47621068      9.35827728     -5.09641535      0.94192698
    H     73.81827217     -1.04875805     -0.39345804      0.94717505
    C    199.37523291      8.42143961     -4.27504699      4.11133714
    H    127.59149969     16.78207452     10.05050176      0.94526881
    C     73.47432734     -0.37182772     -1.18560788      4.10957472
    H     73.92891140     -1.71121402     -2.81871603      0.94471260
    H     73.89915934     -0.02041137     -3.27840513      0.94312892
    C     74.21381295     -0.70635563     -2.48259323      4.10966982
    H    190.06616804      5.52068037     -3.17633388      0.94748412
    C    187.91978555      3.80304268      2.65791431      4.11125216
    H     76.01465618      0.37220609     -1.97723506      0.94501223
    C    137.28504848     14.07742282     11.46943543      4.11060956
    H    194.77286681      9.95734101     -6.58814681      0.94753829
    H     76.05329314     -1.32147630     -1.53084261      0.94495253
    H    199.03900826      9.35806675     -3.81255765      0.94515111
    H    204.54504006      8.91916350      7.19182755      0.94479487
    C     75.73243975     -0.63096785     -2.32102296      4.11110491
    H     76.20430254     -1.96152513     -3.95606773      0.94491588
    H     76.14899955     -0.26987383     -4.40886296      0.94498379
    C     76.47747552     -0.95444177     -3.61659811      4.11112672
    C    190.71014882      4.54580431     -1.36750747      4.10901719
    H    172.47841912     11.88542757     13.99174027      0.94508873
    H     78.26126713      0.14479365     -3.10839320      0.94312703
    H    209.86879293      5.22517706     10.86081186      0.94343872
    C    142.18576768     12.74942000     11.83016199      4.11061298
    H     78.32606629     -1.55090675     -2.67149008      0.94473994
    H    200.28058903      8.67336826     -4.84159100      0.94506703
    H    134.58280470     13.98020909     10.75503342      0.94464209
    C     77.99536304     -0.86033947     -3.45740291      4.10970542
    H     78.44435149     -2.17000276     -5.10722584      0.94714595
    H     78.41774399     -0.47056662     -5.53821159      0.94463533
    C     78.73850046     -1.17224492     -4.75796560      4.10960504
    H    142.42790485     13.54507290     11.11430395      0.94473601
    C    203.65758188      6.90678662      1.87441422      4.10963595
    H     80.58137797     -1.79905991     -3.81718692      0.94457636
    C    164.85524230     11.57522484     13.95669635      4.11059152
    C    172.38129003     10.58315898     12.27320603      4.11059085
    H     80.71717306     -1.50764834     -5.54095164      0.94713211
    C    198.29765872      7.90912551     -5.23120147      4.10975191
    H    158.42373583     10.15844061     14.67767897      0.94467829
    C     80.26271996     -1.12201728     -4.61969173      4.10963413
    H     80.46146970      0.96728776     -5.13096303      0.94474277
    H     80.38950861      0.66557593     -3.40643458      0.94313895
    C     80.80543816      0.28209936     -4.34601417      4.10966688
    H    154.84012218     12.03168403     12.23105777      0.94473882
    H    204.54593612      7.18326309      1.29270595      0.94459865
    H     82.67747105     -0.37950281     -3.49552259      0.94480268
    C    136.05222300     14.57798895     12.22296069      4.11055975
    C    193.47622832      8.64411615     -5.47522293      4.11035858
    H     82.75388937     -0.05653853     -5.21596938      0.94492029
    H    129.48031587     17.47476154     11.52561878      0.94724081
    C    205.04001758     10.19694167      5.52146158      4.11005998
    C     82.33247944      0.31380537     -4.27292299      4.11114459
    H     82.52521376      2.40887211     -4.76026218      0.94474620
    H     82.45335800      2.08246109     -3.04054426      0.94490363
    C     82.87360634      1.71471218     -3.98516630      4.11054405
    H    189.66487478      4.29394984     -1.15179966      0.94438880
    H    203.96332345      6.07177070      2.51728506      0.94729220
    H     84.75025422      1.05315484     -3.14494028      0.94471289
    H    208.63678308      5.87646425     11.92327968      0.94492442
    H    192.97065727      9.51785842     -5.04495437      0.94740397
    H     84.82179377      1.39563852     -4.86184282      0.94466493
    H    159.92083828     10.34025626     12.66694127      0.94457627
    H    204.71412598     11.13064332      5.99707184      0.94748373
    C     84.40058663      1.75339386     -3.91396665      4.11058637
    H     84.58386493      3.85427347     -4.37956703      0.94475369
    H     84.51350806      3.50974841     -2.66331450      0.94479768
    C     84.93536260      3.15369767     -3.61166729      4.11055042
    H    145.66486067     11.19852969     13.63558952      0.94466579
    C    202.55384027      6.42807347      0.92705148      4.10963293
    H     86.81490715      2.49206836     -2.77798423      0.94468693
    H    178.38233685      9.92939510      9.65484132      0.94493698
    H    192.86590159      8.33130899     -6.33177425      0.94499794
    H     86.88501248      2.85214079     -4.49133275      0.94467459
    H    198.63598935      6.97781292     -5.70252223      0.94508762
    H    205.92486728     10.45290153      4.92512425      0.94481189
    C     86.46213932      3.19845127     -3.53991189      4.11058786
    H     86.63559478      5.30470361     -3.98417010      0.94476670
    H     86.56715161      4.94250080     -2.27151000      0.94478558
    C     86.99050799      4.59803855     -3.22344997      4.11055155
    C    152.21650926     11.26627768     12.63669033      4.11060415
    H    141.08504802     14.01057552     13.19151162      0.94485864
    H     88.87319065      3.93736845     -2.39613552      0.94469030
    H    128.06642598     14.23758931      8.40794043      0.94489989
    C    193.50463984      7.52220796     -4.43503774      4.10956925
    H     88.94155574      4.31409098     -4.10604951      0.94467834
    C    167.35856541     11.90513466     14.28038172      4.10957053
    C    203.92750481      9.69508425      4.59693841      4.10963894
    C     88.51708654      4.64930898     -3.15136543      4.11059066
    H     88.67974833      6.76061796     -3.57507136      0.94478883
    H     88.61443974      6.38128897     -1.86598406      0.94479239
    C     89.03878854      6.04831448     -2.82157259      4.11052940
    H    191.14303053      3.66306044     -1.85478749      0.94521457
    H    139.51226446     12.45658756     11.06826471      0.94456750
    H     90.92541884      5.38911643     -2.00214574      0.94467336
    C    209.10777266      7.14660173     10.24085229      4.11027029
    C    129.40547922     15.65692871     10.37644140      4.10958734
    H     90.99039980      5.78246943     -3.70837509      0.94477752
    C    148.36346496     11.65338443     13.16321967      4.11055794
    H    163.33960831     12.15793190     15.37771548      0.94486489
    C     90.56511116      6.10646411     -2.75017799      4.11057677
    H     90.71730099      8.22227050     -3.15441746      0.94488339
    H     90.65441424      7.82704018     -1.44888289      0.94502123
    C     91.08020303      7.50486607     -2.40758152      4.11111271
    H    143.14800448     11.70754384     13.45997292      0.94467091
    H    202.86936077      5.48768245      0.45786469      0.94719192
    H     92.97084688      6.85120512     -1.59194558      0.94470911
    H    208.75569293      8.07364281     10.70947728      0.94348068
    H    194.15550216      7.81213366     -3.60044194      0.94499329
    H     93.02903637      7.25081791     -3.29735384      0.94307810
    H    197.39835311      7.65098417     -4.65878527      0.94199694
    H    130.55360091     17.47070085     10.13939616      0.94447945
    C     92.60632259      7.56961662     -2.33691534      4.10965940
    H     92.76185342      9.68395709     -2.74297837      0.94463852
    H     92.65484603      9.28673865     -1.03861977      0.94721386
    C     93.11055552      8.97078845     -1.98549823      4.10957550
    H    173.63562068     11.90909185     11.11966455      0.94481123
    H    167.30126933     12.84246526     13.71275594      0.94470830
    H     94.89792798     10.04736921     -1.45383694      0.94717923
    H    209.98792415      7.42334330      9.64687956      0.94496121
    C    153.40474862     11.17159123     13.59453903      4.11056276
    H     94.98733992      8.32720585     -1.12603303      0.94455059
    H    185.67296191      5.84264908      5.54937541      0.94477863
    H    203.05321231      9.40957781      5.19527713      0.94457898
    C     94.63365953      9.06263725     -1.85947285      4.10964825
    H     95.16389041      7.85222749     -3.57403168      0.94315328
    H     94.98304279      9.55802511     -3.93267275      0.94471290
    C     95.37131012      8.85605263     -3.18400777      4.10960579
    C    191.44613158      4.81426389     -0.05284366      4.10716212
    H    135.74526497     13.83083768     12.96545917      0.94469336
    H     97.09089882     10.04947263     -2.65397123      0.94502836
    C    208.02444778      6.58610863      9.31698844      4.11026101
    H    127.01697975     14.35458182      9.80635815      0.94482047
    H     97.27203061      8.34458391     -2.29348005      0.94480089
    H    170.57291683     12.56766465     15.46048001      0.94723571
    C    185.80542991      4.41511105      3.93504444      4.11054589
    C     96.88217046      9.04477658     -3.04294680      4.11112778
    H     97.43634203      7.83234006     -4.74273413      0.94477122
    H     97.21750742      9.52921435     -5.12030712      0.94474933
    C     97.62433293      8.84514532     -4.36488481      4.11056392
    H    192.49134742      5.06972038     -0.26512658      0.94642943
    H    201.65116033      6.19165561      1.50430535      0.94458313
    H     99.31538460     10.08372632     -3.84925572      0.94481489
    H    188.06726097      2.93515246      3.31302632      0.94507192
    C    196.92905233      8.42501205     -7.33772229      4.10891208
    H     99.54006686      8.38640091     -3.47770149      0.94471002
    H    152.33939000     12.14196784     11.98690534      0.94474453
    H    158.36828130     11.90528771     14.79721487      0.94485708
    C     99.13061197      9.07151645     -4.23061399      4.11055340
    H     99.71074482      7.86148792     -5.92364620      0.94468139
    H     99.44659362      9.54927611     -6.31264043      0.94477758
    C     99.87341278      8.88154558     -5.55365212      4.11057461
    H    191.01275147      5.69712798      0.43248630      0.94357708
    H    135.20024902     15.60377467     10.52486865      0.94474957
    H    101.53306713     10.16776965     -5.05288759      0.94491573
    H    138.68458198     14.69552379     12.99174245      0.94485854
    H    147.35856818     12.65245353     11.53435064      0.94475717
    H    101.80332131      8.47980621     -4.66942962      0.94469384
    H    184.92092774      6.38128008      4.06162904      0.94492974
    H    172.48264063      9.65076110     12.84269489      0.94465204
    C    101.37369237      9.14822479     -5.42611081      4.11056470
    H    101.98046717      7.94082986     -7.11162426      0.94490122
    H    101.66957791      9.61779794     -7.51276252      0.94488366
    C    102.11705452      8.96781483     -6.75019805      4.11114366
    C    191.42563135      3.62548036      0.91360738      4.10902852
    H    187.01886317      5.76297755      2.76297016      0.94490755
    H    103.73834515     10.30191130     -6.26212098      0.94304290
    H    208.38065084      5.64432706      8.88081673      0.94745640
    C    174.36110396      9.89630837     10.82592724      4.11060897