  600
Geometry Step: 30000
    H     29.54584823      6.60540848      9.51854715      0.90087557
    H     30.27708914      7.69353000     10.83622715      0.89520610
    C     29.97981606      7.55734839      9.80322508      4.30091989
    C    205.77464391     -4.53701499     17.05399198      4.10709050
    H    175.11044816      9.36867823     11.08314319      0.94480226
    H     30.26136154      8.39248235      7.86821608      0.93355127
    H    133.11586481     20.16142590     14.28776228      0.94478616
    C    203.70787031     -6.41507419     18.45707421      4.30284330
    H     28.85986560      8.99055643      8.69642457      0.93051425
    H    203.83832370     -7.00149866     17.55517465      0.89513457
    C    175.14514466     10.32962534     10.55408815      4.11057375
    C     29.91917194      8.69943389      8.87331386      4.04425016
    H     30.48844983     10.76618945      8.63761929      0.94930577
    H     30.29296329     10.26706723     10.30668612      0.94362990
    C     30.68795526      9.94364778      9.33591287      4.10955041
    H    204.91007174     -4.88402451     16.47500499      0.93760481
    H    204.54692354     -4.79663749     19.55219973      0.93587627
    H     32.63877802     10.61920029      9.94824837      0.94853827
    H    174.84506578     12.42340483     10.99744719      0.94480100
    H    206.37878412     -6.49235607     17.75165425      0.94128238
    H     32.40043604      8.89375583     10.13621840      0.93811062
    H    169.19751384     13.26708763     14.51470512      0.94318935
    C    150.61513869     16.43236713     15.20944328      4.11057528
    C     32.20251094      9.73674420      9.46302703      4.10575167
    H     32.50791951      8.59582864      7.64851765      0.94173805
    H     32.68587633     10.32487952      7.43885663      0.94673390
    C     32.90978095      9.49814892      8.12541642      4.10979503
    H    205.47731502     -3.57296264     17.48599310      0.94495977
    H    205.19429007     -6.35117391     19.98095475      0.92912115
    H     34.83301780     10.25940602      8.75491557      0.94537177
    H    209.09273561     -2.91652983     11.60590089      0.94731576
    H    175.55483510     11.51496328     12.31419032      0.94478614
    H     34.64908716      8.53197595      8.96895719      0.94382795
    H    156.90533250     14.55041266     14.29287023      0.94465892
    C    204.85875525     -5.75626216     19.10217589      4.04613440
    C     34.42651579      9.35700270      8.28051346      4.11074640
    H     34.73301794      8.21217014      6.47282359      0.94459362
    H     34.91332280      9.93965609      6.25647913      0.94513308
    C     35.13776396      9.11585844      6.94606413      4.11059607
    C    206.97134755     -4.33466618     16.12118383      4.11181101
    C    206.06390565     -5.53331161     18.18088964      4.11000933
    H     37.05949859      9.88083553      7.57387647      0.94482388
    C    140.71597120     18.68347288     14.25361884      4.11056770
    C    158.13419536     15.23957788     15.93304044      4.11056078
    H     36.87932137      8.15342044      7.79049290      0.94451868
    H    202.76773411     -6.50307418     18.99020873      0.90062706
    C    165.70693945     14.47835110     16.69225957      4.11108827
    C     36.65487823      8.97702730      7.10079527      4.11052800
    H     36.96278679      7.83117112      5.29386377      0.94467926
    H     37.14161831      9.55872623      5.07654261      0.94486063
    C     37.36654043      8.73553904      5.76667599      4.11056122
    H    130.68553299     20.95651454     14.01255450      0.94447769
    H    174.37902040     10.26682861      9.77074909      0.94470627
    H     39.28759901      9.50270133      6.39413524      0.94476445
    C    129.83437271     21.89442141     12.25753235      4.10970274
    H    173.82148725     12.46913503     13.92491074      0.94477527
    H     39.10877331      7.77531668      6.61241765      0.94463795
    H    176.11443727      9.30140523      8.16440930      0.94473467
    C    131.00898365     21.62720340     13.20640642      4.10975195
    C     38.88378268      8.59805985      5.92186043      4.11057972
    H     39.19219261      7.45097886      4.11584653      0.94471153
    H     39.37053543      9.17838365      3.89726929      0.94478480
    C     39.59576387      8.35579118      4.58798329      4.11056152
    H    208.74480754     -2.79748156     14.63762113      0.94500897
    H    206.91219304     -5.17537729     18.77771251      0.94964587
    H     41.51661512      9.12371804      5.21499882      0.94473365
    C    208.50086403     -1.00130628     10.82079311      4.10858308
    C    176.88178537      9.37758086      8.94521135      4.10960100
    H     41.33832543      7.39632090      5.43390997      0.94468060
    H    131.28888243     22.56923276     13.69492197      0.94720870
    H    207.83715535     -3.99228100     16.70253265      0.94538776
    C     41.11299776      8.21879836      4.74312029      4.11056088
    H     41.42150844      7.07079827      2.93778838      0.94471608
    H     41.59822838      8.79818700      2.71801082      0.94477570
    C     41.82459084      7.97621974      3.40915118      4.11054691
    H    182.88749493      3.24800165      4.35201477      0.94475790
    H    165.58888626     13.54544400     17.25808253      0.94478654
    H     43.74513282      8.74604661      4.03495333      0.94471035
    H    209.34827915     -1.04431758     10.12493590      0.94708070
    C    207.58587527     -2.13722416     12.93651441      4.10950704
    H     43.56863328      7.01855373      4.25410966      0.94468009
    C    174.79513680     11.46175193     11.52396983      4.11054586
    C    171.34085571     13.41878455     14.71909412      4.11110873
    C     43.34203715      7.84074251      3.56343765      4.11057293
    H     43.65163675      6.69177953      1.75892394      0.94472709
    H     43.82302005      8.41939320      1.53709446      0.94475788
    C     44.05270071      7.59886264      2.22881085      4.11055528
    C    134.66391498     20.28495134     12.78307867      4.11054446
    H    172.64981053     11.24928622     11.36597048      0.94470341
    H     45.97232825      8.37619669      2.84813607      0.94470685
    H    207.63350876     -1.37208176     10.26098636      0.94314892
    H    206.71885424     -2.47778363     12.35634130      0.94463395
    H     45.80108099      6.64897102      3.07404795      0.94468309
    C    206.68226646     -3.33553395     14.99724207      4.11037884
    H    207.26579258     -5.29901478     15.68789914      0.94465558
    C     45.57078210      7.46800017      2.38082331      4.11056870
    H     45.88003546      6.31259723      0.58050195      0.94472206
    H     46.04486223      8.03983943      0.35099855      0.94474189
    C     46.27912064      7.22302652      1.04550505      4.11057986
    H    208.16616708     -4.10292763     13.62540379      0.94495257
    H    132.55125363     21.69906955     11.69413821      0.94477938
    H     48.19779373      8.00949964      1.65637302      0.94469079
    C    208.26712753      0.45676824     11.23381505      4.10856834
    H    207.29336649     -1.17511749     13.37451137      0.94329804
    H     48.03325077      6.28252179      1.88963212      0.94468507
    H    205.81400886     -3.67582037     14.41873190      0.94418979
    H    206.39199793     -2.37001124     15.43072775      0.94475900
    C     47.79810393      7.09805112      1.19387369      4.11058728
    H     48.10640534      5.93642439     -0.60263765      0.94473184
    H     48.26366786      7.66335356     -0.83972268      0.94475175
    C     48.50337858      6.85032160     -0.14259701      4.11056731
    C    146.94698302     17.11214170     14.01272448      4.11057156
    C    182.44409910      5.33587959      4.69204834      4.11056565
    H     50.42062862      7.64639364      0.46026137      0.94470388
    H    133.66138809     21.79246892     13.96276095      0.94500249
    C    208.78242169     -1.94028729     11.99976514      4.11014869
    H     50.26382496      5.91946451      0.69893946      0.94468829
    H    169.84791907     12.32798174     15.84117616      0.94465305
    C    207.87624532     -3.13730345     14.05909637      4.11115412
    C     50.02326503      6.73199059      0.00152648      4.11056226
    H     50.32978336      5.56743192     -1.79332345      0.94473740
    H     50.48128798      7.29425261     -2.03456345      0.94475548
    C     50.72544151      6.48344356     -1.33638382      4.11056150
    H    188.14406377      6.13302082     -5.33108453      0.94509980
    C    202.04309490      4.70905681      1.73708868      4.11007602
    H     52.64228240      7.28630796     -0.74103099      0.94469759
    H    150.40153771     15.60213724     15.89461671      0.94469077
    C    132.24350008     21.03901152     12.51512994      4.10952763
    H     52.49108726      5.55942307     -0.49828577      0.94468076
    H    145.78737513     18.37213499     15.33044353      0.94476497
    H    154.36976965     14.89294224     14.06822137      0.94466555
    C     52.24610889      6.36980068     -1.19661687      4.11057124
    H     52.54924770      5.20298650     -2.99059429      0.94474467
    H     52.69736778      6.92971211     -3.23489802      0.94474951
    C     52.94481249      6.12033419     -2.53621958      4.11056786
    C    188.78045779      5.00369043     -3.60133159      4.10960605
    H    202.92339332      4.67205503      1.08284906      0.94486173
    H     54.86221307      6.92697005     -1.94788009      0.94469484
    H    207.37673002      0.52392268     11.87081240      0.94321260
    H    159.64736692     15.99345999     14.58732124      0.94473123
    H     54.71435784      5.20032134     -1.70185393      0.94468178
    C    205.25977247      2.95252441      6.08708995      4.10876680
    C    176.52234763     10.51125378      9.90965398      4.11103618
    C     54.46607498      6.00915109     -2.40079081      4.11057871
    H     54.76591728      4.83980223     -4.19372327      0.94474809
    H     54.91038564      6.56635064     -4.44131025      0.94475226
    C     55.16123619      5.75856394     -3.74201280      4.11056641
    C    184.23243545      4.41493004      3.12630238      4.11056153
    H    201.96880804      6.85597969      1.91698464      0.94739979
    H     57.07853469      6.56901327     -3.15901920      0.94470302
    C    133.41687206     20.83848711     13.47822228      4.11109085
    H    209.63830564     -1.56347990     12.57424197      0.94495554
    H     56.93471340      4.84215483     -2.91205911      0.94470411
    H    206.15697065      2.92132650      5.45601782      0.94470212
    H    171.42935074     14.38269764     14.20185359      0.94488874
    C     56.68305733      5.65027426     -3.61065936      4.11057615
    H     56.98156545      4.48067821     -5.40377786      0.94475348
    H     57.12065975      6.20755367     -5.65256479      0.94476056
    C     57.37545469      5.40075825     -4.95352354      4.11055203
    H    149.31967435     15.71712488     13.63307668      0.94466008
    H    176.55312502     11.47026072      9.37666644      0.94503895
    H     59.29150325      6.21674270     -4.37467075      0.94469442
    H    136.06457273     21.03072906     14.25065701      0.94476338
    C    127.29684983     19.66432728     10.27562629      4.11108148
    H     59.15341264      4.48948601     -4.12758626      0.94480173
    H    204.43625897      2.59765314      5.45542306      0.94567322
    C    204.81422634      5.36924346      5.33725965      4.11075697
    C     58.89785343      5.29690749     -4.82560955      4.11057554
    H     59.19835578      4.12724624     -6.61846163      0.94481585
    H     59.32859776      5.85458018     -6.86897805      0.94497836
    C     59.58869621      5.04960804     -6.16975290      4.11110244
    H    188.92040999      4.06121151     -4.14580063      0.94485840
    H    202.11821500      3.83032036      2.38946949      0.94356891
    H     61.50225181      5.87566000     -5.59601170      0.94468357
    H    209.10727234      0.79126688     11.85562566      0.94719552
    H    170.92171289     12.25087499     12.94881215      0.94480277
    H     61.36760840      4.14897462     -5.34243478      0.94323589
    C    204.98590056      4.39974766      6.51307134      4.10877688
    H    204.80223908      6.39545526      5.72645808      0.94765481
    C     61.11163388      4.95287656     -6.04343437      4.10954968
    H     61.43654029      3.76493069     -7.82029700      0.94455191
    H     61.49604587      5.49323394     -8.09472025      0.94719967
    C     61.79898046      4.70756593     -7.39084849      4.10967761
    H    185.99485081      4.41021085      0.98350068      0.94224177
    C    200.77103989      4.60619529      0.89111122      4.11011975
    H     63.73503199      4.67634045     -8.33290612      0.94722294
    H    131.98855013     20.07986294     12.04797463      0.94320383
    C    192.24060962      6.30933176     -7.74320469      4.10648543
    H     63.68975668      5.61062017     -6.85278011      0.94461023
    H    139.82157019     19.61175199     12.51883365      0.94475687
    H    205.69146802      5.30881433      4.68060707      0.94478731
    C     63.33021653      4.68135930     -7.31282298      4.10962646
    H     63.52096775      3.48705977     -5.51520975      0.94319692
    H     63.52144543      2.55138305     -6.99456721      0.94470974
    C     63.89502145      3.48082162     -6.54632233      4.10956077
    C    196.50760176      4.79131721     -4.60757612      4.11054067
    C    139.54091021     18.88609977     13.29292265      4.11056235
    H     65.80508553      3.46207403     -7.55949369      0.94498997
    C    169.93933576     13.29061752     15.32234697      4.10957764
    H    191.46399343      6.14342460     -8.50059643      0.94807996
    H     65.79749388      4.39199763     -6.07682156      0.94485764
    H    137.98947758     18.64071518     14.77934194      0.94468964
    C    203.54339462      5.13230596      4.51476819      4.10866980
    C     65.42601593      3.46376583     -6.52950279      4.11108430
    H     65.60818971      2.25497663     -4.74638458      0.94480971
    H     65.63727631      1.33283568     -6.23384895      0.94467977
    C     65.99716541      2.26134425     -5.77261176      4.11055873
    H    189.58429927      5.04054146     -2.85582993      0.94351070
    H    199.89093350      4.63414982      1.54601340      0.94472575
    H     67.91757463      2.27495796     -6.76512544      0.94475321
    C    208.11661377      1.41857776     10.04925722      4.11013060
    H    192.26799696      5.39324601     -7.14132886      0.94265736
    H     67.88603993      3.18247121     -5.26901225      0.94479697
    H    204.09147655      4.43010943      7.14812880      0.94458366
    C    163.17811008     14.68381899     16.43542761      4.11056959
    C     67.52805217      2.25768112     -5.73927145      4.11055191
    H     67.70161591      1.02228285     -3.97349783      0.94470996
    H     67.75937779      0.12459067     -5.47503240      0.94468909
    C     68.10305063      1.04948368     -4.99453881      4.11058642
    H    196.56705780      3.80683087     -5.08888423      0.94475080
    H    182.10796995      4.03588860      2.99724870      0.94479376
    H     70.03494572      1.09987558     -5.96309604      0.94477567
    H    208.11189882      2.44788405     10.43018983      0.94744867
    C    191.83880569      7.49561865     -6.85976160      4.10854436
    H     69.97480772      1.98419458     -4.45403578      0.94477367
    C    145.64330006     17.46035041     14.73675831      4.11057930
    C    138.27103054     19.36355773     14.00308419      4.11056970
    C     69.63338343      1.06258002     -4.94240706      4.11056057
    H     69.80090287     -0.19709685     -3.19327864      0.94470688
    H     69.88727939     -1.07149300     -4.70718116      0.94467826
    C     70.21388745     -0.14983546     -4.20898712      4.11057105
    C    144.46657748     17.65663400     13.77665639      4.11056395
    H    136.87125826     18.62127635     12.53219695      0.94470638
    H     72.15622446     -0.06070590     -5.15362887      0.94485929
    H    208.99830981      1.34379078      9.39997925      0.94491532
    H    141.81218799     17.31723300     12.98544331      0.94467741
    H     72.06707056      0.79988631     -3.63237704      0.94476476
    H    183.91390582      3.08533620      1.45140123      0.94506470
    H    203.56074263      4.12118642      4.09150510      0.94176376
    C     71.74322010     -0.11850959     -4.13847483      4.11056772
    H     71.90426519     -1.40406156     -2.40755033      0.94491875
    H     72.02431373     -2.25229131     -3.93398485      0.94475880
    C     72.33073691     -1.33438798     -3.41636927      4.11111556
    C    187.41851224      4.99225871     -2.89911500      4.11033162
    H    200.69180470      5.48978384      0.24589043      0.94350403
    H     74.27965623     -1.19792209     -4.33390256      0.94329987
    C    206.84994620      1.18788632      9.21838009      4.11001950
    H    128.33684159     21.52950552      9.93805119      0.94484495
    H     74.16251740     -0.36964472     -2.79656764      0.94467884
    H    205.81177428      4.75630762      7.14073198      0.94566007
    H    167.08445286     13.67935147     15.23398537      0.94328696
    C     73.85831919     -1.28225849     -3.32465533      4.10956433
    H     73.97130824     -2.61468202     -1.63299265      0.94717095
    H     74.19540550     -3.41269888     -3.17543927      0.94454119
    C     74.44991017     -2.50449946     -2.61448387      4.10969967
    H    187.30654101      5.90785259     -2.30447023      0.94492804
    C    162.00435244     14.85092867     15.46617830      4.11058474
    H     76.22175346     -1.51072986     -1.87307003      0.94470552
    H    128.83435379     20.00079027     12.55047559      0.94478881
    H    192.57231820      7.62076877     -6.05403445      0.94209030
    H     76.27939658     -3.25717181     -1.76264700      0.94721018
    C    196.28774042      5.87020040     -5.67175230      4.11132863
    H    127.26212183     21.55603095     11.31909687      0.94516103
    C     75.96858443     -2.43102672     -2.41478383      4.10956992
    H     76.52067654     -3.41188000     -4.26125993      0.94469205
    H     76.47924280     -1.66575454     -4.37568807      0.94319382
    C     76.77278607     -2.49265852     -3.71752941      4.10962085
    H    186.62559685      5.02937238     -3.65706984      0.94748919
    C    184.66861720      3.25206583      2.23057439      4.11126946
    H     78.53101640     -1.51685941     -2.92791358      0.94501302
    C    137.09653072     19.56676933     13.04179434      4.11057166
    H    191.88288259      8.41774656     -7.45314053      0.94754926
    H     78.58650846     -3.26316081     -2.82520125      0.94490669
    H    196.23029416      6.85397128     -5.18835396      0.94516710
    H    202.66756298      5.16631218      5.17494773      0.94471826
    C     78.28391876     -2.43417162     -3.47759179      4.11110815
    H     78.87094972     -3.41547889     -5.31288829      0.94489817
    H     78.76605019     -1.67311266     -5.44196407      0.94498060
    C     79.09213848     -2.48339965     -4.77738031      4.11111177
    C    187.18444786      3.76837835     -2.00546689      4.10877824
    H    172.08674275     13.44297432     15.52382043      0.94499237
    H     80.81228978     -1.44168284     -3.99701598      0.94320107
    H    206.86437622      0.17830030      8.78968236      0.94357356
    C    141.99739186     18.24743304     13.53749209      4.11057698
    H     80.93141506     -3.18398963     -3.88034140      0.94471187
    H    197.16069526      5.91488299     -6.33545074      0.94506977
    H    134.42085452     19.33218275     12.29565341      0.94479607
    C     80.60056371     -2.37134029     -4.53935444      4.10965002
    H     81.18011231     -3.33978963     -6.37667480      0.94718027
    H     81.07231965     -1.59660230     -6.50095922      0.94467211
    C     81.40623896     -2.40837440     -5.84218799      4.10961590
    H    142.26534091     18.99527188     12.78023199      0.94475069
    C    200.73381556      3.33406918      0.03767364      4.10957176
    H     83.25611088     -3.10574069     -4.96041303      0.94454374
    C    164.53282971     14.64168908     15.72286193      4.11056563
    C    171.67515773     12.28457087     13.74609214      4.11058527
    H     83.41962086     -2.50872492     -6.59842993      0.94714838
    C    195.02275207      5.63501439     -6.50160522      4.10959131
    H    157.96417255     14.35524244     16.56025496      0.94469260
    C     82.92329351     -2.31080325     -5.63984032      4.10968798
    H     83.01675543     -0.15438822     -5.75919152      0.94471471
    H     82.94449572     -0.76644175     -4.12117594      0.94327680
    C     83.39070602     -0.95282053     -5.10572193      4.10956913
    H    154.64423650     16.62155673     14.05928238      0.94473353
    H    201.59374349      3.32655196     -0.64414690      0.94468214
    H     85.29134965     -1.65735137     -4.35283209      0.94474785
    C    135.83812739     20.08331807     13.74500254      4.11056497
    C    190.43839759      7.36553679     -6.24973694      4.11036278
    H     85.36613456     -1.02312911     -5.98269658      0.94489870
    H    129.08023075     22.48966629     12.78803325      0.94725708
    C    203.37651593      6.15858420      3.38945615      4.11008464
    C     84.91477986     -0.85258016     -4.99696027      4.11112148
    H     84.98798655      1.30547737     -5.08626016      0.94478064
    H     84.93175117      0.66499524     -3.45866327      0.94488883
    C     85.37592642      0.50080675     -4.44871484      4.11056330
    H    186.13752576      3.77323408     -1.67865512      0.94451644
    H    200.86191862      2.46113274      0.69048586      0.94734853
    H     87.29074398     -0.19038988     -3.71926734      0.94467087
    H    205.97075979      1.22176103      9.87432278      0.94485318
    H    190.18546864      8.30737692     -5.74624362      0.94740609
    H     87.34401343      0.46263082     -5.34255027      0.94467399
    H    159.44610068     14.25598913     14.52314236      0.94465429
    H    203.39185892      7.16810526      3.81979780      0.94750158
    C     86.89963809      0.61723350     -4.35105445      4.11058744
    H     86.94641216      2.77683513     -4.41634848      0.94479043
    H     86.91474052      2.11741044     -2.79565123      0.94479975
    C     87.35046809      1.96971140     -3.79205074      4.11055343
    H    145.40072096     16.66992281     15.45836274      0.94468113
    C    199.43995898      3.16064005     -0.76684679      4.10955604
    H     89.28035420      1.29477518     -3.08781191      0.94463848
    H    177.28741936     10.58143400     10.69341353      0.94488636
    H    189.69658582      7.24489637     -7.04948561      0.94504807
    H     89.30937648      1.96105459     -4.70624943      0.94467692
    H    195.08700614      4.66164545     -7.00426632      0.94504084
    H    204.24173188      6.10710421      2.71626633      0.94476602
    C     88.87362681      2.10280974     -3.70902835      4.11058491
    H     88.89594660      4.26320231     -3.75828007      0.94480655
    H     88.88816404      3.59139434     -2.14232556      0.94476923
    C     89.31514261      3.45591854     -3.14419079      4.11055483
    C    151.93827269     16.17177282     14.48390298      4.11057376
    H    140.90361567     19.61409331     14.80428284      0.94474811
    H     91.25946890      2.79757414     -2.46406740      0.94466962
    H    128.02779785     19.02568880      9.76341567      0.94500840
    C    190.30301560      6.21156001     -5.25052109      4.10950996
    H     91.26436785      3.47416394     -4.07850108      0.94470720
    C    167.06392765     14.48048634     15.98290801      4.10951506
    C    202.08578804      5.98858672      2.57919550      4.10968792
    C     90.83755330      3.60509971     -3.07591654      4.11056494
    H     90.83557013      5.76578722     -3.11125420      0.94483120
    H     90.85408472      5.08375273     -1.49967032      0.94477773
    C     91.27073682      4.95927408     -2.50734039      4.11052694
    H    187.31117855      2.85209562     -2.59600037      0.94517936
    H    139.33483711     17.94820840     12.76171555      0.94468085
    H     93.22998276      4.31846496     -1.85377887      0.94464031
    C    206.69005260      2.21455741      8.09370059      4.11014062
    C    129.17284830     20.62409000     11.71315761      4.10953986
    H     93.20816786      5.00328963     -3.46458154      0.94480070
    C    148.12437535     16.92225880     14.97321403      4.11056336
    H    163.17277581     15.50624639     17.16212774      0.94476943
    C     92.79215163      5.12448360     -2.45626001      4.11056292
    H     92.76483830      7.28506587     -2.47926469      0.94489844
    H     92.81437651      6.59454624     -0.87194237      0.94499763
    C     93.21788474      6.48039082     -1.88618642      4.11110894
    H    142.91744986     17.27939396     15.23767245      0.94468677
    H    199.44061988      2.16263584     -1.22349263      0.94725395
    H     95.19395975      5.86295132     -1.25985380      0.94460860
    H    206.67461145      3.22408119      8.52268153      0.94360432
    H    191.08996766      6.29084315     -4.48970348      0.94489078
    H     95.13706964      6.54343306     -2.87179828      0.94318233
    H    194.15746365      5.56971403     -5.83068387      0.94208311
    H    130.17344794     22.51824050     11.42076906      0.94451786
    C     94.73793494      6.66257819     -1.85711186      4.10959670
    H     94.70970014      8.82258113     -1.90225349      0.94476597
    H     94.72084353      8.14221728     -0.28909042      0.94727744
    C     95.15196263      8.02507536     -1.29153419      4.10948249
    H    173.13751849     13.39362414     12.60570039      0.94481230
    H    167.18291197     15.41672586     15.42289043      0.94463249
    H     96.86287778      9.16453945     -0.65663638      0.94720284
    H    207.56955008      2.18157925      7.43817412      0.94487955
    C    153.11422465     15.98775335     15.44732365      4.11055988
    H     97.11470139      7.43285409     -0.59676563      0.94458644
    H    183.20105832      5.47844022      5.47386808      0.94477182
    H    201.22199466      6.01001893      3.25574849      0.94456974
    C     96.66852713      8.23213917     -1.20200142      4.10966763
    H     97.26397952      7.33331444     -3.08138779      0.94334453
    H     96.86870818      9.03443213     -3.19990226      0.94458342
    C     97.36977946      8.29430033     -2.56317923      4.10948442
    C    188.09784203      3.71440055     -0.77605147      4.10675636
    H    135.54677396     19.38383365     14.53881580      0.94470319
    H     98.96126614      9.61460983     -1.93638410      0.94502806
    C    205.42390948      1.98160989      7.26270098      4.11019983
    H    126.93173882     19.07605944     11.12718310      0.94482998
    H     99.35620406      7.91522772     -1.79638713      0.94477633
    H    170.38085836     14.45807698     17.08008726      0.94725471
    C    182.86598660      4.18267135      3.77718863      4.11055159
    C     98.85499311      8.64673237     -2.44297092      4.11110134
    H     99.49441891      7.71968478     -4.28863346      0.94476277
    H     99.03420915      9.39957738     -4.46105068      0.94475859
    C     99.56213328      8.70011942     -3.80027249      4.11059602
    H    189.14644725      3.72593602     -1.09769792      0.94655108
    H    198.57939940      3.17767531     -0.08599698      0.94469137
    H    101.09396358     10.10130502     -3.20311908      0.94481933
    H    184.69829676      2.32664067      2.81997179      0.94509516
    C    193.58566286      6.49264181     -8.45762735      4.10886682
    H    101.56041593      8.42429255     -3.02018913      0.94470417
    H    152.15089320     17.00415559     13.80090409      0.94473857
    H    158.17070260     16.09208517     16.62332048      0.94477828
    C    101.03093329      9.11766557     -3.68595059      4.11056166
    H    101.71689456      8.17384737     -5.50627743      0.94467087
    H    101.18492100      9.82742766     -5.72167820      0.94477955
    C    101.74005325      9.16805110     -5.04225583      4.11055571
    H    187.96047395      4.62511283     -0.18023025      0.94390846
    H    134.96441137     20.96481216     11.97560007      0.94475114
    H    103.20673210     10.64856189     -4.47427740      0.94490955
    H    138.47876185     20.30280796     14.53146458      0.94475699
    H    147.18680854     17.90346133     13.29103688      0.94474706
    H    103.74501823      8.99852072     -4.24941898      0.94468419
    H    182.42756070      6.27179038      4.11908514      0.94489825
    H    171.60264008     11.32097544     14.26620372      0.94464657
    C    103.18869705      9.65186306     -4.93345815      4.11055246
    H    103.92333673      8.69611367     -6.72861769      0.94489547
    H    103.32184721     10.31980490     -6.98480714      0.94486017
    C    103.90145896      9.70096155     -6.28790147      4.11110921
    C    187.88234454      2.47690549      0.10496400      4.10893731
    H    184.20583959      5.34120079      2.53829566      0.94486731
    H    105.29554238     11.25479774     -5.74531642      0.94314532
    H    205.43728279      0.95593710      6.87231268      0.94752167
    C    173.41007293     11.29740637     12.15598316      4.11059179