   60
Geometry Step: 597
    C      0.00036912      8.74638912     -0.00000005      4.23869013
    C      1.21940506      8.68560033     -0.00000009      3.94281519
    C      2.59510335      8.61889186     -0.00000013      4.00275651
    C      3.82833352      8.56111826     -0.00000013      4.00045349
    C      5.19262102      8.50092732     -0.00000012      3.99956674
    C      6.43145610      8.44947050     -0.00000008      4.00168543
    C      7.79177269      8.39813515     -0.00000005      3.99961367
    C      9.03324257      8.35549319     -0.00000000      4.00150195
    C     10.39196725      8.31502027      0.00000002      3.99984248
    C     11.63486123      8.28305774      0.00000005      4.00118631
    C     12.99294814      8.25506724      0.00000005      4.00008509
    C     14.23663191      8.23526690      0.00000005      4.00088083
    C     15.59448812      8.22094199      0.00000003      4.00033528
    C     16.83853222      8.21420222      0.00000001      4.00059837
    C     18.19633323      8.21416071     -0.00000001      4.00059846
    C     19.44037738      8.22080268     -0.00000003      4.00033512
    C     20.79823291      8.23507129     -0.00000005      4.00088089
    C     22.04191604      8.25484640     -0.00000005      4.00008488
    C     23.40000071      8.28283882     -0.00000004      4.00118633
    C     24.64289258      8.31484169     -0.00000003      3.99984236
    C     26.00161274      8.35538552      0.00000000      4.00150190
    C     27.24307803      8.39813045      0.00000005      3.99961360
    C     28.60338865      8.44956842      0.00000008      4.00168534
    C     29.84221840      8.50113670      0.00000012      3.99956681
    C     31.20650343      8.56136228      0.00000013      4.00045350
    C     32.43973275      8.61914729      0.00000013      4.00275654
    C     33.81543384      8.68579155      0.00000009      3.94281521
    C     35.03447416      8.74649332      0.00000005      4.23869012
    C      0.00036700      0.05326271      0.00000000      4.23869020
    C      1.21941795      0.11361945     -0.00000001      3.94281478
    C      2.59512610      0.17987382     -0.00000001      4.00275628
    C      3.82836804      0.23725889     -0.00000002      4.00045325
    C      5.19265946      0.29708445     -0.00000003      3.99956682
    C      6.43149873      0.34828999     -0.00000004      4.00168534
    C      7.79181183      0.39938545     -0.00000005      3.99961362
    C      9.03328042      0.44187146     -0.00000006      4.00150190
    C     10.39199794      0.48216279     -0.00000006      3.99984245
    C     11.63488939      0.51395826     -0.00000006      4.00118618
    C     12.99296672      0.54178595     -0.00000006      4.00008497
    C     14.23664651      0.56144797     -0.00000004      4.00088090
    C     15.59449216      0.57565674     -0.00000003      4.00033519
    C     16.83853110      0.58230745     -0.00000001      4.00059850
    C     18.19632140      0.58230905      0.00000001      4.00059843
    C     19.44035997      0.57565918      0.00000003      4.00033519
    C     20.79820540      0.56146386      0.00000004      4.00088081
    C     22.04188513      0.54182529      0.00000006      4.00008497
    C     23.39996276      0.51402332      0.00000006      4.00118615
    C     24.64285530      0.48225716      0.00000006      3.99984254
    C     26.00157351      0.44198528      0.00000006      4.00150185
    C     27.24304307      0.39951186      0.00000005      3.99961373
    C     28.60335645      0.34841652      0.00000004      4.00168524
    C     29.84219538      0.29720017      0.00000003      3.99956691
    C     31.20648607      0.23735409      0.00000002      4.00045321
    C     32.43972641      0.17993884      0.00000001      4.00275632
    C     33.81543297      0.11365788      0.00000001      3.94281475
    C     35.03448262      0.05327486     -0.00000000      4.23869034
    H     -1.06308892      8.80000000      0.00000000      0.80998874
    H     36.09793793      8.80000000      0.00000000      0.80998873
    H     36.09793793     -0.00000000      0.00000000      0.80998960
    H     -1.06308892      0.00000000      0.00000000      0.80998959
